# vtk DataFile Version 4.0
vtk output
ASCII
DATASET POLYDATA
FIELD FieldData 7
irad 1 1 float
0.8 
srad 1 1 float
4 
spacing 3 1 float
0.625413 0.625413 0.625282 
liveth 1 1 float
-90 
seedth 1 1 float
-70 
AV_classification_dnn_model_name 1 1 string
Model_v03_all_points.hdf5

vessel_sizing_dnn_model_name 1 1 string
Model_v01_df93962_best.hdf5

POINTS 5205 float
-20.4887 -88.1462 -206.891 -32.8243 -66.8098 -204.078 -33.0846 -66.7716 -203.688 
-33.4776 -66.8435 -202.825 -33.2821 -66.7214 -203.304 -37.6196 -64.2529 -201.249 
-36.9982 -68.2947 -199.946 -32.5169 -68.4188 -200.377 -32.3111 -68.7701 -199.995 
-36.7256 -68.0818 -200.315 -36.3093 -68.0017 -200.834 -37.0047 -66.016 -200.529 
-37.1519 -65.505 -200.717 -37.3072 -65.0062 -200.938 -67.7173 -200.29 -198.999 
-22.6841 -72.3346 -199.236 -32.3157 -71.0903 -198.861 -43.0553 -68.7937 -198.617 
-43.4592 -68.4578 -198.755 -37.2451 -68.5504 -199.597 -37.739 -69.2142 -198.874 
-44.3635 -67.4357 -199.018 -43.8568 -68.0708 -198.885 -33.0132 -73.5471 -197.447 
-32.5856 -72.456 -198.083 -32.7918 -73.0887 -197.709 -32.4245 -71.7395 -198.496 
-41.8037 -69.6185 -198.152 -41.3654 -69.8697 -197.961 -40.9147 -70.1234 -197.742 
-40.3525 -70.552 -197.474 -38.512 -70.1853 -197.622 -38.1858 -69.7638 -198.236 
-42.2674 -69.3463 -198.33 -42.6669 -69.0838 -198.48 -62.3025 -61.3464 -198.456 
-61.9776 -61.7068 -198.185 -61.6653 -62.1051 -197.935 -52.1944 -59.4621 -197.822 
-34.3616 -75.8078 -196.328 -39.7647 -70.9031 -197.238 -69.2544 -65.7372 -196.78 
-51.9557 -60.4188 -196.646 -52.0707 -59.94 -197.162 -33.9946 -76.4501 -196.083 
-64.6168 -67.2524 -195.578 -32.6729 -80.8111 -193.91 -60.0138 -66.9822 -194.851 
-50.7173 -196.935 -192.55 -22.1847 -84.3351 -193.022 -22.2835 -83.737 -193.133 
-31.7162 -89.9103 -192.465 -22.3339 -84.921 -191.966 -30.8206 -88.3205 -190.58 
-30.6205 -88.7638 -190.376 -22.6701 -85.72 -190.252 -22.5936 -85.5139 -190.677 
-22.4968 -85.2863 -191.164 -37.2934 -196.606 -189.688 -37.6971 -196.56 -189.307 
-30.302 -90.2109 -189.224 -30.5154 -89.1963 -190.09 -30.3783 -89.7968 -189.592 
-22.7377 -85.9334 -189.828 -22.8028 -86.1724 -189.354 -55.3519 -70.5549 -189.184 
-38.241 -196.411 -188.811 -30.0464 -91.6922 -187.786 -30.2409 -90.5745 -188.891 
-30.1496 -91.1314 -188.366 -30.2183 -90.7106 -188.774 -22.9289 -86.7644 -188.152 
-22.889 -86.5493 -188.616 -50.9855 -78.1638 -187.91 -51.1926 -78.5793 -188.308 
-50.5459 -77.7577 -187.819 -50.1297 -77.3954 -187.749 -47.2066 -74.3421 -187.819 
-48.0178 -73.61 -188.502 -47.7104 -73.9105 -188.208 -56.3441 -72.0975 -188.277 
-55.8953 -71.4752 -188.786 -65.0927 -192.6 -187.527 -64.8128 -192.395 -187.152 
-64.4307 -192.109 -186.668 -29.2752 -101.343 -186.771 -75.0478 -93.5114 -186.594 
-29.7721 -92.717 -186.602 -29.9666 -92.0494 -187.387 -29.8769 -92.3885 -187.003 
-21.4086 -89.1902 -187.061 -21.8506 -88.7524 -186.822 -25.796 -87.3519 -186.522 
-23.1071 -87.2015 -186.797 -22.9959 -87.0931 -187.308 -82.7049 -84.7066 -186.521 
-44.6486 -75.9581 -186.792 -45.1744 -75.6497 -186.921 -57.3892 -74.3097 -186.989 
-57.064 -74.7599 -186.713 -46.5216 -74.8242 -187.385 -45.4939 -75.4686 -187.014 
-57.1174 -73.7791 -186.93 -56.6084 -194.151 -185.9 -56.7057 -193.743 -185.459 
-64.1588 -191.854 -186.307 -63.8618 -191.529 -185.884 -63.6741 -191.088 -185.479 
-77.3091 -185.802 -185.889 -77.2778 -186.233 -186.254 -77.3852 -185.348 -185.571 
-15.1146 -102.006 -186.195 -29.4311 -100.786 -186.065 -29.2793 -93.9766 -185.636 
-74.5388 -93.529 -186.474 -74.0193 -93.5262 -186.371 -73.502 -93.4931 -186.296 
-71.9667 -93.2332 -186.192 -72.9767 -93.4309 -186.25 -72.4712 -93.3428 -186.217 
-71.4267 -93.1012 -186.175 -70.0145 -92.6373 -185.925 -29.6286 -93.1094 -186.213 
-29.4647 -93.5267 -185.901 -69.1702 -92.1812 -185.498 -29.0799 -90.9218 -186.15 
-26.1775 -87.3349 -185.575 -23.6799 -87.0497 -185.886 -23.3521 -87.1601 -186.343 
-82.3327 -85.6143 -185.898 -82.1499 -86.055 -185.606 -82.5158 -85.1681 -186.207 
-71.5139 -81.3726 -186.201 -54.6985 -79.3446 -185.346 -54.9841 -78.9703 -185.499 
-55.2547 -78.5858 -185.628 -55.5069 -78.1832 -185.751 -43.3412 -78.2563 -185.551 
-55.7667 -77.7087 -185.885 -43.487 -77.5993 -185.945 -43.6376 -77.0299 -186.322 
-76.057 -66.3272 -186.48 -54.4689 -65.0575 -186.422 -56.888 -193.038 -184.653 
-56.794 -193.378 -185.04 -77.495 -184.838 -185.225 -77.6991 -184.14 -184.73 
-12.8961 -113.528 -184.638 -13.8871 -113.531 -184.197 -13.3895 -113.492 -184.393 
-12.302 -113.657 -185.179 -55.4703 -104.752 -184.352 -92.649 -99.0821 -184.792 
-91.5444 -98.7636 -184.83 -92.0702 -98.9686 -184.806 -91.0288 -98.5635 -184.835 
-89.9223 -98.0216 -184.219 -27.7949 -96.7583 -184.314 -28.1742 -96.1141 -184.615 
-28.6039 -95.3558 -184.967 -28.3254 -95.852 -184.737 -28.925 -94.736 -185.253 
-68.3193 -91.6894 -185.107 -68.7514 -91.9313 -185.295 -67.8625 -91.4874 -184.941 
-67.4042 -91.2657 -184.768 -66.9945 -90.9267 -184.6 -65.8178 -90.0069 -184.3 
-65.4742 -90.4715 -184.257 -65.0964 -90.8626 -184.232 -78.7531 -89.0406 -184.751 
-66.0786 -89.6103 -184.355 -66.3426 -89.1762 -184.428 -67.2142 -87.8792 -184.693 
-66.7866 -88.4933 -184.563 -81.8229 -86.8387 -185.117 -68.1492 -86.7154 -184.918 
-67.7794 -87.1429 -184.844 -25.2407 -86.6657 -184.205 -24.8256 -86.7534 -184.649 
-24.3742 -86.8501 -185.106 -24.3171 -86.8636 -185.165 -24.452 -86.8334 -185.029 
-69.0088 -85.5671 -185.241 -68.7249 -86.015 -185.073 -32.89 -81.6984 -184.193 
-32.848 -81.1993 -184.429 -32.8049 -80.6573 -184.674 -54.0484 -80.1704 -184.779 
-54.3545 -79.7636 -185.124 -42.9805 -80.2176 -184.393 -43.0814 -79.6693 -184.716 
-32.8922 -79.6194 -185.041 -32.8229 -80.1387 -184.873 -43.1915 -79.048 -185.087 
-43.246 -78.7633 -185.253 -33.4605 -78.3208 -185.219 -33.1708 -78.8564 -185.176 
-27.0091 -68.6852 -184.326 -26.8768 -69.2333 -184.163 -27.2738 -67.6679 -184.726 
-27.4224 -67.2192 -184.977 -27.1398 -68.1494 -184.512 -57.0721 -192.448 -184.069 
-57.2013 -192.043 -183.721 -57.3241 -191.637 -183.398 -20.2244 -103.111 -183.281 
-33.4585 -100.886 -183.768 -33.044 -101.051 -184.07 -34.4988 -100.393 -183.048 
-33.8879 -100.695 -183.487 -26.4337 -98.9902 -183.137 -88.7328 -97.4243 -183.363 
-89.5207 -97.809 -183.916 -89.1208 -97.6032 -183.618 -27.0972 -97.9077 -183.74 
-26.853 -98.309 -183.523 -88.2985 -97.234 -183.121 -27.537 -97.1848 -184.104 
-26.2213 -86.4595 -182.903 -25.6003 -86.5898 -183.788 -25.9241 -86.5209 -183.366 
-31.3926 -85.1281 -183.858 -42.6821 -81.7026 -183.496 -42.5477 -82.5317 -182.989 
-42.8705 -80.7682 -184.062 -42.7601 -81.3023 -183.744 -25.8053 -74.2384 -183.238 
-26.2232 -71.1032 -183.96 -73.4184 -70.3368 -183.453 -73.6546 -69.8655 -183.627 
-26.6665 -69.9899 -183.987 -26.4062 -70.5557 -183.966 -25.1291 -100.927 -181.88 
-34.8941 -100.162 -182.686 -25.4468 -100.492 -182.171 -25.7862 -99.9961 -182.506 
-26.0531 -99.5955 -182.764 -59.1768 -93.8779 -182.696 -57.8067 -94.3775 -182.224 
-56.514 -94.7938 -181.779 -57.0927 -94.611 -181.972 -63.4474 -92.0045 -182.731 
-63.0953 -92.3008 -182.318 -44.6071 -87.7437 -181.995 -44.0368 -87.6436 -181.775 
-26.6114 -86.4365 -182.263 -26.8631 -86.4527 -181.856 -42.249 -85.1216 -181.822 
-42.2851 -84.602 -182.024 -42.3411 -84.1183 -182.223 -42.3957 -83.676 -182.41 
-25.793 -75.9577 -182.39 -25.8671 -76.5027 -182.119 -25.757 -75.4109 -182.675 
-25.7541 -74.9688 -182.894 -67.7273 -64.1838 -181.71 -95.9784 -125.742 -180.869 
-95.0005 -125.813 -180.522 -95.4885 -125.774 -180.696 -87.8605 -109.212 -180.994 
-87.0741 -108.788 -180.667 -23.1043 -103.487 -180.577 -23.7895 -102.674 -180.91 
-23.4372 -103.076 -180.754 -24.786 -101.398 -181.57 -24.2898 -102.048 -181.208 
-36.2397 -99.4775 -180.702 -36.003 -99.5836 -181.147 -55.0476 -95.3104 -181.221 
-56.0241 -94.9553 -181.585 -55.5394 -95.1262 -181.395 -54.5621 -95.5017 -181.048 
-54.0947 -95.7 -180.879 -53.4546 -95.9834 -180.65 -81.7187 -94.4451 -181.494 
-81.3134 -94.1299 -181.493 -79.6386 -93.1044 -180.987 -79.9054 -92.7573 -181.282 
-62.5558 -92.7872 -181.629 -42.0414 -87.4581 -180.719 -27.6925 -86.6707 -180.53 
-27.2291 -86.5146 -181.285 -42.2185 -86.0586 -181.46 -27.5866 -83.9617 -181.142 
-71.3932 -75.1457 -180.506 -64.0747 -65.1223 -181.169 -63.5802 -65.2845 -180.972 
-64.5676 -64.9226 -181.376 -63.092 -65.4475 -180.762 -62.5924 -65.5966 -180.57 
-67.108 -64.2877 -181.589 -59.4337 -184.856 -179.42 -59.3723 -185.235 -179.728 
-59.9778 -183.933 -179.398 -93.9714 -125.909 -180.145 -94.4851 -125.858 -180.336 
-92.2387 -125.813 -179.692 -91.4661 -125.535 -179.733 -90.4329 -125.27 -179.612 
-90.9425 -125.376 -179.73 -86.3516 -108.564 -180.364 -85.3465 -108.483 -179.997 
-85.8018 -108.499 -180.134 -84.2541 -108.457 -179.655 -84.7502 -108.466 -179.801 
-83.803 -108.424 -179.425 -22.5427 -105.279 -179.465 -22.6402 -104.596 -179.914 
-22.85 -103.909 -180.352 -36.658 -99.1125 -179.319 -36.4595 -99.3799 -180.281 
-52.9956 -96.1721 -180.466 -52.4029 -96.4025 -180.211 -78.6126 -93.8382 -180.076 
-78.4237 -93.9392 -179.937 -78.752 -93.758 -180.185 -77.672 -94.267 -179.466 
-41.5143 -88.9066 -179.717 -41.8424 -88.0656 -180.276 -41.9255 -87.835 -180.443 
-41.6793 -88.4812 -180.002 -27.9905 -86.8477 -179.997 -51.041 -85.2255 -180.455 
-50.7892 -85.5219 -180.165 -50.2443 -86.0867 -179.533 -50.527 -85.8039 -179.866 
-71.1027 -75.7418 -179.724 -71.2483 -75.4492 -180.112 -44.2421 -188.404 -178.765 
-44.0853 -188.875 -179.14 -44.405 -187.8 -178.262 -59.4617 -184.461 -179.095 
-58.1249 -184.4 -178.165 -58.2023 -185.227 -178.838 -58.2446 -184.737 -178.522 
-59.4527 -184.056 -178.768 -59.3308 -183.246 -178.147 -59.4068 -183.656 -178.455 
-75.7855 -177.799 -178.629 -76.1778 -178.051 -178.897 -75.4306 -177.551 -178.397 
-75.0765 -177.29 -178.176 -83.2748 -165.213 -178.203 -98.8324 -133.243 -178.361 
-22.3273 -107.211 -178.215 -22.4892 -105.744 -179.164 -22.3734 -106.802 -178.481 
-22.439 -106.202 -178.872 -56.6352 -104.088 -178.627 -56.7008 -103.671 -178.142 
-77.2087 -94.4261 -179.22 -75.5334 -94.8178 -178.285 -76.4747 -94.6381 -178.856 
[...]
POINT_DATA 5205
SCALARS scale float
LOOKUP_TABLE default
3.15962 1.95896 2.05591 2.12409 2.25141 2.15651 2.29994 2.03075 2.0498 
2.25546 1.9592 2.15497 2.15843 2.1997 2.21032 2.61068 1.93844 2.64242 
2.53028 2.28556 2.48499 1.99506 2.33087 1.99683 1.96495 1.95733 1.96921 
2.80075 2.74658 2.60406 2.19346 2.08137 2.45306 2.75502 2.70231 2.11481 
2.16449 2.0692 2.08029 2.05316 1.93907 2.02711 2.08465 2.23892 1.9808 
2.06401 1.9432 2.11212 1.99816 2.64096 2.08095 2.16085 2.46497 2.55044 
2.66155 2.47592 2.45231 2.39609 3.10364 3.08125 2.3099 2.55037 2.43995 
2.482 2.45121 3.65311 2.96105 2.07882 2.21276 2.08813 2.12444 2.2127 
2.25076 2.46033 1.99484 2.50701 2.38867 2.23122 2.00634 2.11795 3.70437 
3.79364 1.95841 1.99099 2.07308 3.85238 1.96657 2.21946 2.09233 2.05344 
2.35005 2.2887 5.22021 2.33174 2.26668 1.9417 2.30995 2.40762 2.54873 
2.12564 2.63758 2.49291 2.37275 2.07498 2.06468 2.12615 2.02506 1.94604 
2.27451 2.42722 2.20363 1.97493 3.80246 2.34957 2.02405 2.07294 2.09541 
2.06177 2.10803 2.09134 2.03392 2.28885 2.37765 2.40624 2.53483 5.47355 
4.97574 2.09135 2.25937 2.29656 2.34859 2.16716 2.02998 2.12865 2.07017 
2.02713 1.99055 2.24344 1.94823 2.2913 2.34831 1.95659 2.21593 1.97849 
2.00989 2.11995 2.04463 2.35707 2.28075 2.34249 2.10902 2.91345 1.94731 
1.97336 1.94981 1.95 2.0572 2.38386 2.30382 2.19181 2.29521 2.18292 
2.51486 2.54944 2.42038 2.29567 2.27372 2.11809 2.06973 1.99147 2.44517 
2.15236 2.1528 2.17453 2.18027 2.03664 2.00698 2.04788 2.28151 2.21904 
2.0305 2.01066 2.0784 1.95114 1.98612 1.93891 2.08762 2.28462 1.96763 
2.10939 2.22993 2.21706 2.21141 2.27728 2.2191 2.24402 1.94531 1.96719 
3.19138 3.00979 3.31521 3.28272 3.31424 1.99146 1.99852 1.94022 1.99626 
2.13095 2.06626 2.10651 2.11876 2.39162 2.20996 2.17559 2.22565 2.43166 
2.43686 2.07545 2.40836 2.04601 2.27057 2.19608 3.27697 2.09735 1.96388 
2.21438 2.17423 2.01429 1.99929 2.00488 2.05765 2.67373 2.18976 2.32191 
1.9922 2.29712 2.32322 2.3543 1.96488 1.95435 1.99484 2.01057 3.98871 
4.38267 1.96646 2.00711 2.00206 1.99495 2.13489 1.98423 1.97768 1.94361 
2.04647 1.95527 2.16903 2.2621 2.51735 2.10355 2.12298 2.11348 2.12055 
2.24445 2.84924 2.51214 2.71551 2.30902 2.39953 2.02781 1.97079 2.10886 
2.05277 2.12155 2.06818 2.05083 1.97932 2.0634 2.17784 2.00346 1.96106 
4.83941 2.78999 2.02885 2.01382 2.54417 2.57334 1.99911 2.23077 2.28843 
2.03338 2.35867 2.36802 2.17383 4.30681 4.41996 4.98783 2.07665 2.11871 
2.31584 2.24996 2.08936 2.19152 2.20239 2.14782 2.04274 1.97735 2.0226 
2.08197 2.84634 2.92455 2.9309 2.99271 2.05049 1.98911 1.97831 2.09703 
2.11029 2.08993 2.13359 2.84708 2.68529 2.69422 2.78539 2.0053 2.00061 
2.07533 2.00108 2.05417 2.00176 2.0917 2.15449 1.97155 2.30578 4.17629 
1.93756 1.99847 2.1811 4.03968 3.76798 3.90412 2.06819 1.95977 2.01491 
1.93812 1.93921 1.9785 2.79741 2.84512 2.82391 2.83897 2.70505 2.86851 
2.13007 2.30673 2.09734 2.05004 2.87839 2.88208 2.89436 1.9851 1.95158 
1.99653 2.58553 2.49058 2.68222 2.62094 2.38059 3.63861 3.50924 3.11312 
3.14965 1.99953 2.04991 1.97538 2.13346 2.16969 2.08803 2.02132 2.26916 
2.29045 3.2158 2.72342 2.73103 2.69112 2.23119 2.759 2.24864 3.07645 
3.623 2.05189 2.55755 2.44024 2.6693 2.76585 2.7018 2.69154 2.67953 
2.8173 2.79195 2.77577 2.79287 2.05378 2.01985 2.00492 2.79654 2.79805 
2.8024 2.07148 2.06115 2.49971 2.69151 2.20205 1.98568 1.95145 2.00812 
2.09556 1.95276 2.81233 2.94691 2.91133 3.68042 3.18206 3.14123 3.07466 
3.16177 3.03311 2.06927 2.3748 2.2579 2.15219 1.95634 2.16994 2.21573 
2.2047 3.3461 3.46451 3.45459 1.99801 2.6723 2.61895 2.6683 2.60279 
2.36804 2.32846 2.46729 3.78616 2.36801 2.26168 2.31413 2.25773 2.74928 
2.41199 2.85012 2.68315 2.68976 2.49651 2.6092 1.94334 2.90363 4.67632 
2.90064 2.91427 1.96202 2.01041 2.85301 2.79783 2.83828 2.10755 2.09333 
1.96656 3.23204 2.6955 4.90366 4.32578 4.67925 3.11764 2.15983 1.98271 
2.06926 2.20066 2.0747 2.14461 2.75128 2.15985 2.35132 2.05054 2.76206 
2.6796 3.16429 2.70924 2.66436 2.68213 2.66152 2.63273 2.68484 2.6845 
1.97845 1.97841 2.28778 3.51778 2.68792 2.7625 3.62022 3.61245 3.6041 
2.2397 2.11295 3.42826 3.54906 2.04598 2.032 2.16851 2.28784 1.97611 
2.13419 6 6 6 5.97397 2.81746 2.87244 2.91472 3.59609 
3.66488 3.63774 3.87187 4.00701 4.13575 2.08864 1.96499 1.95543 2.8539 
2.24077 2.92138 2.49114 1.94287 1.99567 2.95464 2.48987 2.14996 2.00975 
2.63129 2.70451 2.79391 2.80289 2.77673 2.75756 2.75375 2.78045 2.74843 
2.75368 3.86991 3.69657 2.81291 2.81929 4.39689 2.80905 3.10148 3.21177 
3.12287 3.44585 3.45781 6 2.48062 2.72869 2.50357 2.80235 2.74546 
2.65636 2.69388 2.80455 2.82298 2.18399 2.01901 2.11605 1.96052 2.29172 
3.60715 3.64835 3.73866 3.67354 3.7177 1.96618 2.01709 2.88801 2.93902 
2.94226 2.88285 2.46996 2.74637 2.33845 1.95326 3.25568 3.40246 2.11433 
2.15383 2.07485 2.21309 2.16755 2.4797 2.27081 2.03375 2.11555 2.1248 
2.02878 3.98234 4.07499 4.83238 1.94889 2.60688 2.54094 2.57157 2.61623 
2.55325 2.85695 2.81703 2.68865 2.65318 2.5925 2.58899 2.43607 2.43263 
2.46869 1.95718 3.52589 3.55275 1.94192 3.20129 3.54441 3.52723 3.5516 
3.02763 2.98962 3.02114 2.04817 2.00355 2.04619 1.93877 4.06532 3.84584 
4.12573 4.08973 4.11117 3.22549 3.85454 3.18435 4.82454 1.95974 2.12193 
2.07432 2.08175 2.66 2.71008 3.01654 3.62451 3.48731 5.25608 2.77675 
3.55288 3.55308 3.03734 2.97731 4.25863 4.64209 4.04167 3.78164 2.07785 
2.01778 1.9467 1.98393 5.83947 2.00959 2.10029 2.02646 3.64038 2.28629 
2.07147 2.37303 2.05992 2.13987 2.15762 2.06392 3.07466 2.30635 3.78782 
3.73628 6 6 6 2.0022 2.22701 2.15774 3.37012 2.90893 
1.99724 2.43109 2.35488 2.19488 2.07024 3.66848 3.47497 1.93845 3.47 
3.55997 2.52321 2.22511 2.17315 2.22149 2.25816 2.0846 2.09308 2.01992 
2.00625 2.5819 2.65929 3.84171 3.80202 3.67218 6 6 2.27581 
2.23706 2.32583 3.3459 3.4503 4.39494 2.51617 2.40097 2.20681 2.08286 
3.10045 3.06769 3.54988 3.0849 3.80679 3.8707 3.08486 1.99059 2.12488 
1.9834 2.0278 2.25185 2.33037 3.42455 2.11566 3.42626 3.42453 3.42443 
3.43986 3.77865 1.99138 2.10238 2.19074 3.09887 2.86305 2.49197 2.31105 
2.61408 2.75508 2.8634 2.93657 2.63391 2.19954 2.76491 3.33266 2.56467 
5.99133 5.28695 2.49222 2.5306 2.73524 2.92222 2.78237 3.06859 3.12378 
2.55232 2.33653 2.88682 2.2282 2.84002 2.94542 2.90242 2.68362 2.54834 
2.21433 2.22808 4.62769 1.95361 3.90642 3.58686 2.07947 2.02544 2.15654 
2.13219 2.25851 2.62402 2.44232 2.48831 1.99745 5.84388 2.54294 2.60749 
2.42724 2.30068 2.0683 2.32342 3.61669 2.32994 2.26081 2.10684 2.00573 
3.84231 4.25856 5.34539 2.33737 2.58994 2.60346 1.94159 1.96606 1.94912 
2.05888 2.0998 2.13586 2.18929 3.26288 2.09022 2.08643 2.18289 2.80981 
2.24452 2.2413 2.99418 6 2.47585 2.53144 2.56242 2.45577 2.48084 
2.07832 2.13069 2.84622 2.75143 2.85637 3.81995 3.01109 2.21339 2.09902 
2.31325 2.21978 2.19913 2.18099 3.66242 2.664 3.35765 3.45023 4.91556 
2.69892 2.28526 2.33667 2.22776 2.21213 2.25357 2.30514 2.54091 2.50888 
2.55572 2.01161 2.11817 2.10047 2.0028 2.04913 2.34169 6 6 
6 2.2225 2.39072 2.3609 2.27954 2.25325 2.27778 2.38688 2.00449 
2.02522 2.29585 2.2041 2.11931 2.2592 2.26548 2.5122 2.40348 2.63033 
2.05637 1.99559 2.11367 2.04587 2.71466 2.4921 2.50305 2.35179 2.39739 
2.50873 3.52196 4.16946 3.25014 4.47048 3.00704 2.11517 1.99086 1.99561 
2.62117 2.29028 2.13185 2.23519 2.13212 2.13902 2.15436 2.14135 2.39149 
2.33929 2.41477 2.14216 2.17026 2.14648 2.21645 2.07273 2.00273 3.17596 
3.1816 2.86929 2.98546 3.11454 2.78821 2.75019 2.7651 2.84254 2.78717 
2.80244 2.89289 1.98292 6 6 2.43974 2.4466 2.47974 2.47651 
2.69998 2.46612 1.97631 1.968 2.00102 2.01785 1.98912 2.24217 2.10156 
2.12686 2.0892 2.06754 2.06997 4.9147 5.06778 4.8211 5.04565 3.95122 
3.80945 2.09028 1.98232 1.99817 2.04732 2.04827 1.99975 1.98517 2.12053 
4.63598 4.6433 2.09733 2.49628 2.24392 2.52257 3.99059 2.17553 2.1795 
2.10075 2.20356 2.15751 2.4341 2.49851 2.54234 2.58893 2.52221 2.61807 
2.6438 2.6696 3.14943 2.95932 2.72022 3.46661 3.77626 3.6779 3.88552 
3.87055 3.63381 3.68302 3.83278 3.77038 3.42218 6 3.56022 3.25567 
3.63139 3.13014 2.76615 2.8164 2.42334 2.73101 3.49769 2.15718 1.9375 
3.21545 2.05286 2.13683 1.98241 2.17487 1.9801 2.06644 2.13147 2.23475 
2.30845 2.20148 2.04192 2.03064 2.05147 2.07303 5.0118 5.08783 2.08583 
4.93417 5.00903 4.92819 3.27584 3.58096 2.23663 2.19851 2.4351 2.16713 
3.69192 4.07483 4.63774 4.66965 4.67241 5.35534 2.00952 2.09282 2.15434 
2.19457 4.25529 4.20368 2.54835 1.95904 2.26036 2.35219 2.26624 2.27193 
2.37151 3.59128 3.53977 3.21714 3.48302 3.47177 6 6 5.57202 
4.37078 2.06858 1.9944 2.40789 1.95358 2.01036 1.98789 1.97649 2.21838 
2.04883 2.02149 2.12035 2.94936 1.95464 1.94436 4.88451 4.74965 4.61234 
2.16576 2.11915 2.11379 2.10084 2.06008 2.03092 1.95048 1.95263 1.9597 
3.78109 4.15649 3.10475 3.18389 2.99163 3.02521 2.99987 6 6 
6 3.2669 2.1883 2.1075 2.00804 2.13394 2.04461 2.12348 2.30972 
2.01896 2.27427 2.33458 1.94668 2.13211 1.99821 1.93875 2.13998 4.33564 
2.65255 2.6927 1.95524 2.06525 1.99852 1.94245 1.98085 1.99694 1.96856 
1.98509 2.03528 2.00956 2.05477 2.10401 1.99263 2.17355 2.04028 2.12028 
2.35266 2.40063 3.64137 2.33367 2.33882 2.42543 2.42929 2.38937 2.38278 
2.23311 2.30638 2.2107 2.13253 2.01384 2.05011 1.94543 1.94613 2.1001 
2.01153 2.65389 2.80319 2.79224 2.73054 2.71225 2.70709 2.73742 2.66826 
2.62619 2.61957 2.94528 2.93766 2.94545 6 5.99945 4.69873 4.71058 
2.32636 2.34953 2.35977 2.18093 2.14694 2.27791 4.25113 3.63509 2.13879 
2.15272 2.12692 2.06424 2.02797 2.02718 1.98027 2.10015 2.16984 2.24061 
3.67031 3.45953 2.59463 2.61222 2.66521 2.58359 2.68081 2.06976 2.02687 
2.0958 2.08695 2.34266 2.69956 2.49459 2.40863 2.62233 2.62712 2.63032 
2.62977 2.63752 2.63888 2.61597 2.60421 2.57646 2.56373 2.56356 2.52751 
2.96013 2.97673 4.62467 4.8969 4.35494 1.98388 2.06697 2.11165 2.80584 
2.02436 1.99955 2.27519 2.25151 2.14745 2.04857 2.2221 2.11053 2.18124 
2.21785 2.14754 2.09873 3.47005 3.45136 2.69779 2.00613 3.63764 3.67553 
2.71099 2.76531 2.84214 2.88891 4.61915 4.38434 1.95382 2.62481 2.56442 
2.65556 2.68001 2.7375 2.87534 3.18962 2.91117 2.4642 2.44947 2.43681 
2.41929 2.56124 3.99081 3.78475 3.33004 5.3435 5.29771 2.7112 2.14682 
3.09792 1.94205 2.11413 2.16894 2.07288 3.00555 3.04068 4.45071 4.3834 
2.01801 2.53367 2.29805 2.33206 2.38036 2.37539 2.33865 3.60631 3.54092 
3.46558 3.34718 3.40876 2.90105 2.89333 4.57407 3.90697 2.93172 4.90172 
4.40426 3.61236 2.97541 2.98742 4.41878 2.97337 2.98335 3.33032 3.11187 
3.4841 3.31601 1.96333 2.00796 1.95919 2.00102 3.19361 5.56574 5.79876 
4.93563 2.40206 2.38763 2.28105 2.35063 2.31458 2.22296 2.09527 2.05381 
2.33427 2.43677 2.46856 3.27679 3.1907 3.21207 4.16127 2.94789 3.4674 
2.90067 2.85325 2.81064 2.76365 2.69048 1.9436 1.98842 1.96755 3.46195 
3.50146 1.97159 1.95985 2.47353 4.00886 3.73066 2.54208 2.50092 2.49217 
2.69524 2.69523 2.84183 1.95421 1.96184 2.00039 1.97356 2.15767 2.07049 
2.14648 2.06443 2.06022 2.31023 2.19589 2.40413 2.11222 2.12708 2.37765 
2.55964 2.45191 2.71346 3.14965 3.15559 3.22054 1.99119 3.30141 3.25864 
2.52438 2.58953 2.53602 2.55556 2.44385 2.52644 3.51169 3.65043 3.0957 
4.09921 3.93935 2.92485 2.42162 2.53129 2.17194 2.25753 2.11813 5.84496 
1.95628 2.04843 2.00016 1.94814 1.95558 1.96353 1.97436 1.95935 1.95062 
1.97895 2.02493 2.9229 3.06682 3.09918 3.10203 3.05552 3.40533 3.41612 
3.47561 3.53841 2.56047 3.74471 4.01066 3.84882 2.02655 2.00779 1.99756 
1.99597 2.08402 2.00726 2.00579 2.08946 2.08681 2.03081 3.72481 2.84521 
3.40627 2.1799 2.50302 2.35172 2.65862 6 2.85091 2.81483 6 
3.03242 2.94061 2.12565 2.16836 2.44795 2.00854 2.25607 2.16906 1.98418 
1.95354 2.00025 2.38708 3.01538 3.00674 3.06932 3.04342 3.13917 3.50166 
3.49203 3.4821 3.47665 1.94707 4.15495 4.34295 2.10541 2.02755 2.18295 
2.05453 2.24 2.05337 2.01988 4.76126 4.70658 2.43851 2.44161 2.30272 
3.05533 2.28851 2.88845 3.04412 2.17986 2.13667 2.2304 2.1337 2.13099 
2.1233 2.1433 2.12966 2.23228 2.13641 3.25008 3.18167 3.34814 3.44112 
3.57497 3.50036 2.00023 1.94185 3.50367 3.54565 3.46867 1.98243 2.01485 
1.9979 1.98765 2.93819 2.77525 2.85747 2.95774 2.9522 2.93363 2.94613 
2.96799 2.97502 2.95681 2.98638 4.50391 4.45783 3.26744 3.25489 3.27081 
3.27712 3.30901 3.71356 3.51139 2.00457 2.02983 2.03241 2.0287 2.04573 
2.0355 4.34237 4.36308 2.4121 2.05436 2.88941 2.33421 2.64603 2.23814 
2.27148 2.27907 2.30488 2.30421 2.33285 2.33656 2.32798 2.2687 2.21861 
2.32586 2.11197 2.18657 2.11732 2.11498 2.11081 2.21349 2.0675 2.07764 
2.19769 2.00492 3.64065 3.76024 3.85328 1.93783 3.91296 3.74613 3.73138 
3.55913 1.94411 2.68105 3.09622 2.71093 2.66777 3.07411 3.20088 3.17204 
3.22432 3.23824 3.22493 3.24108 3.23796 3.23316 4.34942 4.3756 2.03804 
2.02441 2.02132 1.99992 1.98791 5.42355 4.99797 3.02035 3.29718 3.08819 
2.42875 2.30123 2.33679 2.34661 2.33456 2.45056 2.39512 2.41378 2.3242 
2.28381 2.2665 2.30983 2.29008 2.24476 2.13139 2.11315 2.13994 2.05711 
2.07428 2.07018 2.09315 2.03036 1.97018 2.00762 2.09255 2.06535 2.10923 
2.10626 2.09205 2.14296 2.02488 1.96982 2.04632 2.29092 3.93573 3.86818 
3.87786 3.89474 3.88787 3.74818 2.90681 2.84295 2.88545 2.15872 3.07329 
3.12934 3.11046 2.87756 5.50304 5.39028 2.97178 2.98629 2.98896 2.98916 
5.61427 5.14667 5.87381 2.52158 2.51198 2.55196 2.42662 2.37543 2.33241 
2.27284 2.30302 2.36611 2.27036 3.79733 3.7605 3.7653 3.77064 3.78101 
3.78806 5.52163 5.57118 4.04644 4.24215 4.38666 3.8975 3.69361 3.56308 
3.53872 3.34121 1.9533 1.98093 1.94222 3.05124 1.94463 1.94168 3.00098 
3.05351 4.03678 4.15237 3.94789 2.4256 2.49515 2.44273 2.47188 2.38171 
2.39307 2.52322 2.41969 2.26134 1.94951 2.1234 2.15007 2.07663 2.23106 
2.3241 2.28945 2.17349 2.13008 2.01961 1.96888 3.75615 3.75516 3.69213 
3.72049 3.74014 3.77866 3.86544 3.59355 4.12655 5.09802 3.90001 3.81541 
5.05196 4.05108 2.2179 2.22634 2.18069 2.04645 1.96799 2.9256 2.08112 
2.89723 2.89879 2.87676 2.9078 2.05395 1.971 1.99986 1.97242 2.98451 
2.97893 2.95581 1.98794 1.96345 1.97923 2.15142 2.11926 2.05691 2.26362 
2.78183 1.94624 2.60271 2.50897 2.96983 2.63861 2.78526 2.54437 2.61203 
2.59849 2.52038 2.63292 2.71687 2.52113 1.97499 2.02355 2.09792 2.10572 
2.09114 2.06149 2.0682 2.09471 2.06108 2.01164 2.06123 2.02691 2.13369 
2.12846 2.08944 2.28289 2.35469 1.98506 2.24991 2.0967 2.18307 2.00104 
1.96591 1.94758 1.98931 2.61051 3.75042 4.06392 3.51908 3.10569 3.10383 
3.09006 2.0336 2.39987 2.55425 2.02996 3.27969 3.22349 3.15297 1.95519 
2.66183 2.6627 3.25367 1.98565 2.00039 1.96405 1.96203 1.95349 2.70553 
2.76552 2.01601 2.00977 2.03067 1.95973 1.9488 1.98258 2.09347 2.08798 
1.99843 2.19317 2.13657 2.04865 6 1.98415 2.06938 2.14195 1.98965 
2.12178 2.01158 1.97958 1.96846 2.81282 2.79536 3.13179 3.11739 1.98301 
1.96053 1.95056 2.15012 2.1327 2.11756 2.01242 2.35269 2.20033 1.94053 
1.95105 2.03869 2.07479 2.09149 2.47233 2.19677 2.70961 2.50871 3.43485 
3.02809 3.37071 3.22613 2.20391 2.37314 2.23437 2.64577 2.49875 2.58647 
2.61652 3.05871 2.98144 2.85701 2.89981 2.81859 2.04176 1.94971 2.83087 
2.9358 2.88922 2.953 2.95205 2.93829 2.85333 2.65494 2.77644 2.84609 
2.94989 3.16875 3.21438 2.11226 2.09781 2.20078 2.01875 2.31981 2.26743 
2.30108 2.01246 1.9891 2.10118 2.31544 2.23046 2.54786 2.61213 2.69245 
2.33749 2.31515 2.28883 1.97143 2.13189 2.06033 2.07969 2.02372 1.974 
1.96281 1.9991 2.05196 2.41114 2.83714 2.94416 2.54679 2.59135 2.57671 
2.56622 2.56702 4.33286 2.56631 2.66837 3.09928 2.7755 2.84923 3.77143 
2.40671 2.37291 2.3798 2.42384 2.1062 2.42888 3.06113 3.17125 2.98499 
2.04904 2.01948 2.57415 2.50969 2.13041 1.9411 1.97452 2.22259 2.30931 
2.08701 2.48893 2.24903 2.12157 2.19573 1.96142 3.47839 2.1538 1.96791 
2.07572 2.18912 2.16649 2.20434 2.09592 2.99875 2.99004 1.95353 1.97049 
1.99277 1.94321 1.97071 2.52048 2.17742 1.96447 2.10863 1.97192 2.00761 
2.05672 2.54929 2.36819 1.96067 2.15373 2.20981 2.46059 2.48752 2.37489 
2.28597 2.27731 2.34023 2.38566 2.48302 2.2734 2.99743 2.9844 3.2231 
2.04681 2.54495 2.6215 2.34115 2.46932 2.14914 2.75671 2.70962 2.74804 
2.49425 2.61658 1.96067 1.98458 4.28918 2.06925 2.44887 3.03611 3.06479 
3.08647 2.98346 2.45483 2.20591 2.13045 2.16702 2.36688 2.27638 2.323 
3.1165 2.31992 3.56152 3.51095 2.13907 2.07221 2.19825 2.43977 2.09869 
2.13324 2.12392 2.1366 2.15748 2.11729 2.11807 2.10043 1.96529 1.95818 
1.95843 1.94548 5.33079 2.92057 2.86442 1.94478 2.71595 2.80632 2.70283 
2.19911 1.97512 2.16814 2.29605 2.69415 2.82022 1.94537 2.02928 2.06878 
1.95001 2.4198 2.55738 2.55662 2.33442 2.43669 1.96393 1.96154 2.26743 
1.9471 1.98386 1.99983 1.94684 2.12992 2.20111 2.2788 2.32609 2.45087 
2.38523 2.61637 2.55291 2.5336 2.36591 2.16815 4.20039 4.53016 2.14332 
4.90961 2.0969 2.04083 2.09274 2.04326 2.20383 2.20137 3.11094 3.32166 
3.0656 3.0382 3.4549 2.34954 2.48714 2.76567 2.73484 3.10967 3.19031 
3.19795 2.88945 2.94559 2.17296 2.87244 2.84487 2.01597 1.94342 1.96905 
2.87973 2.86676 2.83171 2.85963 2.85557 2.86725 2.87489 2.94538 2.89413 
2.62295 2.70849 2.45901 2.48145 3.07555 2.98932 3.01729 2.65353 2.62107 
2.27825 2.24343 2.24978 3.02581 3.0442 2.66503 2.45984 2.58826 2.50862 
2.43319 2.43632 2.57001 2.52932 2.55475 5.74936 2.21076 4.18181 2.18603 
2.08566 2.22994 3.69748 1.94434 2.05069 2.26709 2.24641 2.08515 2.06101 
2.06931 2.81787 2.78637 2.75485 2.66456 2.43562 2.56121 2.35233 2.3643 
2.06984 2.1412 3.08621 3.18122 3.14021 2.79812 2.78397 2.79036 2.05137 
3.06021 3.08189 3.05793 3.02685 3.05081 3.12637 5.99999 5.72657 5.71545 
5.86123 5.58493 1.97143 3.0153 1.95714 2.51399 2.44453 6 2.55428 
2.38914 2.40415 2.41073 2.17163 1.97565 2.01812 2.04506 2.11946 2.76641 
2.5455 1.94189 1.97294 2.29054 4.74898 4.42865 1.98733 2.91278 2.86052 
2.82163 2.99029 3.00131 3.00188 2.96125 5.88227 3.43271 3.48081 3.29891 
3.23121 3.17864 3.16845 3.15503 2.13184 2.52448 2.43717 1.98873 2.06144 
5.85659 2.79369 2.90522 3.0748 2.79323 2.76607 2.55121 2.60875 2.60677 
2.01927 2.06391 2.0027 2.01453 2.10413 2.07498 2.0638 2.72287 2.4315 
2.33691 2.56102 2.63669 2.15934 2.11204 2.31385 2.02961 2.53882 2.29268 
2.26786 2.43532 2.61064 2.84574 2.66605 2.81914 2.90516 2.96471 2.09688 
2.04931 2.04494 2.03361 2.32315 2.61921 2.27924 2.24487 4.80561 5.60092 
2.12925 3.69114 2.36501 2.99432 3.58697 2.8491 3.53665 2.06461 2.28471 
2.20627 2.31036 2.29316 2.31654 2.44267 2.22981 1.96321 2.01271 2.05974 
2.24836 2.17404 2.9292 3.07852 3.11483 3.07758 3.10839 2.96822 3.00156 
2.94661 2.91241 3.08893 3.32845 2.25605 2.42039 2.05642 2.25001 2.23604 
3.59418 2.27639 6 5.94808 6 3.45536 2.58066 2.59525 3.62483 
2.16849 4.67669 5.24857 2.13298 2.09458 2.13101 2.08903 1.93793 1.95545 
2.1169 2.08913 2.20197 1.96912 2.94888 3.0114 2.75714 2.85118 2.81366 
2.55296 2.42041 2.35469 2.26124 2.0384 2.21823 2.21889 3.95654 3.56641 
3.8583 3.84409 3.70473 3.71572 3.74805 2.11363 2.08511 3.59417 3.59495 
3.59411 3.59414 2.04256 2.02759 2.03545 2.62424 2.96192 6 6 
6 2.69772 2.55734 2.53501 5.60829 5.53736 2.17143 2.58938 2.55701 
2.69924 2.39985 2.44613 2.60932 2.31819 2.38638 2.24471 2.9587 3.13004 
3.34562 2.17151 2.20842 2.20143 2.24072 4.7348 4.92463 4.93006 4.85734 
3.72788 4.35548 4.50265 3.76669 3.81735 3.91812 3.9726 3.59155 3.79335 
4.00443 3.93688 3.94866 4.0078 4.00599 4.0183 2.01842 3.98682 3.94854 
2.47215 3.96978 3.99498 2.37082 2.14693 3.9981 4.04279 4.12104 4.19608 
4.08822 4.20653 4.19631 3.885 3.70223 3.5066 3.40657 3.48145 3.31329 
3.50171 3.34737 3.60352 2.03869 2.03619 2.01936 2.05392 2.08527 2.01829 
3.15459 3.06954 1.97715 1.98423 2.03917 5.8691 6 2.33646 2.31399 
2.44677 3.04866 5.74617 5.71679 5.67663 4.8365 3.8239 2.46851 2.06313 
2.18699 2.67841 2.76495 2.87442 2.90168 2.04316 2.23693 2.22095 2.13609 
2.1629 2.06856 4.05923 3.98009 3.94544 3.93507 3.88417 2.53539 3.15524 
3.15855 3.10512 2.82881 2.98593 2.87772 2.91059 3.95423 3.94441 3.90818 
3.94367 4.00476 2.69067 4.07705 4.03079 2.592 2.81945 2.87274 2.80502 
3.01237 2.88556 4.15712 2.80594 3.97952 4.34228 4.48991 4.80486 4.32995 
4.88256 4.81055 5.051 5.14741 4.9615 3.05643 3.16969 3.1312 5.3678 