# vtk DataFile Version 4.0
vtk output
ASCII
DATASET POLYDATA
FIELD FieldData 7
irad 1 1 float
0.8 
srad 1 1 float
4 
spacing 3 1 float
0.625413 0.625413 0.625282 
liveth 1 1 float
-90 
seedth 1 1 float
-70 
AV_classification_dnn_model_name 1 1 string
Model_v03_all_points.hdf5

vessel_sizing_dnn_model_name 1 1 string
Model_v01_df93962_best.hdf5

POINTS 13608 float
-18.5778 -81.7403 -213.372 -18.8582 -81.5957 -212.957 -28.2643 -65.334 -210.979 
-17.5572 -87.2006 -209.611 -29.921 -65.3145 -209.503 -29.4915 -65.2936 -209.847 
-28.6375 -65.3003 -210.557 -29.0499 -65.2839 -210.185 -44.904 -55.6915 -210.009 
-17.8284 -87.073 -209.131 -18.2225 -86.8503 -208.827 -18.5768 -86.4861 -208.667 
-30.3486 -65.3286 -209.146 -18.1903 -92.155 -207.306 -18.3558 -91.6705 -207.079 
-19.2139 -86.9768 -207.105 -18.5016 -91.2109 -206.873 -18.6651 -90.6693 -206.634 
-20.4887 -88.1462 -206.891 -19.366 -87.8044 -206.205 -19.2924 -87.4009 -206.641 
-24.322 -79.2652 -205.688 -24.4262 -79.7332 -205.04 -32.2255 -66.9322 -204.901 
-31.7762 -66.8271 -205.483 -43.0074 -59.2693 -205.514 -49.8383 -58.4134 -205.099 
-22.729 -80.1449 -204.013 -32.8243 -66.8098 -204.078 -32.5265 -66.894 -204.498 
-33.0846 -66.7716 -203.688 -34.1475 -64.7797 -203.595 -34.6022 -64.4935 -203.738 
-49.4615 -61.3021 -203.695 -49.5449 -61.7614 -203.453 -49.4024 -60.8427 -203.939 
-41.3799 -60.7365 -203.683 -25.6674 -80.9581 -202.597 -33.4776 -66.8435 -202.825 
-33.2821 -66.7214 -203.304 -33.6549 -65.4814 -203.119 -33.7798 -65.0821 -203.318 
-50.2292 -62.9427 -203.305 -49.887 -62.663 -202.982 -49.8858 -62.8491 -202.509 
-40.0937 -62.4593 -202.306 -40.7957 -61.4851 -203.057 -41.0847 -61.1159 -203.359 
-40.3732 -62.0621 -202.612 -63.4095 -58.0359 -202.372 -63.3214 -57.7427 -202.832 
-53.5114 -56.0344 -202.217 -26.4227 -82.2498 -201.188 -26.1802 -81.6338 -201.81 
-25.971 -81.3078 -202.167 -35.6726 -67.8809 -201.237 -34.8434 -67.6531 -201.649 
-33.4684 -67.2084 -202.066 -32.902 -67.7722 -201.124 -33.1591 -67.4936 -201.526 
-48.0912 -64.9127 -201.316 -47.6757 -65.218 -201.165 -47.2854 -65.4731 -200.997 
-49.4543 -63.5415 -201.92 -49.1662 -63.9217 -201.728 -48.5205 -64.5669 -201.46 
-37.6196 -64.2529 -201.249 -49.7081 -63.1658 -202.143 -39.688 -62.7859 -202.047 
-38.9582 -63.0726 -201.878 -38.2981 -63.407 -201.709 -63.5141 -58.6164 -201.529 
-63.5528 -58.982 -201.108 -63.4713 -58.3363 -201.936 -53.4131 -56.3342 -201.737 
-53.1913 -56.86 -201.056 -16.0238 -106.758 -200.043 -26.8167 -83.3983 -200.02 
-26.6613 -83.0101 -200.414 -26.5507 -82.6487 -200.814 -36.9982 -68.2947 -199.946 
-32.5169 -68.4188 -200.377 -32.3111 -68.7701 -199.995 -36.7256 -68.0818 -200.315 
-36.3093 -68.0017 -200.834 -32.6954 -68.0228 -200.79 -46.4643 -65.8899 -200.561 
-46.046 -66.0554 -200.284 -45.6458 -66.182 -199.991 -37.0047 -66.016 -200.529 
-46.8865 -65.6892 -200.805 -37.1519 -65.505 -200.717 -37.3072 -65.0062 -200.938 
-64.7345 -59.9183 -200.417 -63.52 -59.8657 -200.207 -63.5839 -59.5384 -200.582 
-52.6919 -57.6633 -199.939 -52.8757 -57.3998 -200.313 -53.0422 -57.1353 -200.685 
-67.7173 -200.29 -198.999 -15.5745 -101.097 -199.327 -27.7715 -85.2582 -198.806 
-27.5493 -84.8106 -199.092 -27.3251 -84.353 -199.378 -24.7802 -75.3866 -199.767 
-22.4624 -73.3245 -199.028 -22.6841 -72.3346 -199.236 -32.3157 -71.0903 -198.861 
-32.2204 -70.2805 -199.241 -43.0553 -68.7937 -198.617 -43.4592 -68.4578 -198.755 
-37.2451 -68.5504 -199.597 -37.739 -69.2142 -198.874 -32.1647 -69.4477 -199.538 
-44.3635 -67.4357 -199.018 -43.8568 -68.0708 -198.885 -63.1259 -60.4545 -199.387 
-62.6861 -60.9548 -198.843 -43.9119 -60.3985 -198.733 -44.0007 -59.8364 -198.751 
-52.349 -58.7762 -198.686 -44.1839 -59.0001 -198.787 -52.412 -58.3885 -199.068 
-52.5369 -57.9423 -199.569 -67.0309 -199.892 -198.373 -66.7693 -199.747 -197.992 
-66.4678 -199.652 -197.627 -8.34997 -110.38 -197.466 -19.6895 -105.864 -197.38 
-19.2074 -106.059 -197.641 -15.5525 -102.402 -197.522 -15.5201 -102.03 -197.993 
-15.5072 -101.687 -198.43 -24.9811 -100.517 -198.218 -28.2889 -86.2511 -197.896 
-28.0096 -85.7163 -198.5 -22.5295 -76.6163 -197.608 -22.6614 -74.7225 -198.212 
-22.6657 -75.3273 -198.011 -33.0132 -73.5471 -197.447 -22.5473 -73.9475 -198.515 
-32.5856 -72.456 -198.083 -32.7918 -73.0887 -197.709 -32.4245 -71.7395 -198.496 
-41.8037 -69.6185 -198.152 -41.3654 -69.8697 -197.961 -40.9147 -70.1234 -197.742 
-40.3525 -70.552 -197.474 -38.512 -70.1853 -197.622 -38.1858 -69.7638 -198.236 
-23.6176 -69.7955 -197.901 -42.2674 -69.3463 -198.33 -42.6669 -69.0838 -198.48 
-23.6958 -69.2832 -197.697 -67.7237 -65.0095 -198.208 -73.8544 -64.4687 -198.298 
-61.0594 -62.9792 -197.429 -61.3251 -62.5486 -197.664 -62.3025 -61.3464 -198.456 
-61.9776 -61.7068 -198.185 -61.6653 -62.1051 -197.935 -52.1944 -59.4621 -197.822 
-52.2756 -59.1375 -198.272 -53.0052 -200.387 -196.805 -8.83485 -110.289 -197.206 
-11.6447 -109.21 -196.529 -22.0583 -105.374 -196.191 -21.6347 -105.439 -196.429 
-20.1542 -105.686 -197.128 -20.9218 -105.527 -196.782 -15.6006 -102.736 -197.035 
-15.6786 -103.021 -196.512 -28.4873 -86.6282 -197.297 -28.6051 -86.8539 -196.876 
-38.1541 -80.46 -197.17 -39.116 -80.1261 -196.681 -38.6723 -80.3099 -197.036 
-22.4692 -78.0546 -196.98 -22.5635 -78.5411 -196.677 -22.4476 -77.532 -197.261 
-34.3616 -75.8078 -196.328 -36.3912 -74.4549 -196.911 -35.7383 -74.9373 -196.808 
-34.8983 -75.425 -196.526 -35.4156 -75.1292 -196.704 -33.6311 -74.7357 -196.784 
-37.6309 -73.3097 -196.872 -37.2473 -73.7 -196.908 -36.7953 -74.1198 -196.927 
-33.1912 -74.0148 -197.174 -38.3293 -72.4801 -196.704 -37.9931 -72.9093 -196.813 
-39.7647 -70.9031 -197.238 -39.135 -71.1851 -196.881 -38.9633 -71.5635 -196.546 
-78.373 -69.7092 -196.425 -38.7532 -70.5421 -197.168 -78.7074 -69.4148 -196.762 
-66.8049 -66.2622 -196.458 -72.1413 -65.1277 -197.192 -72.6169 -64.896 -197.324 
-71.6596 -65.3518 -197.12 -71.1441 -65.5273 -197.01 -70.0777 -65.7914 -196.745 
-70.6224 -65.6581 -196.886 -69.2544 -65.7372 -196.78 -67.3471 -65.8281 -197.007 
-60.8311 -63.4274 -197.199 -51.8609 -60.8153 -196.316 -51.9557 -60.4188 -196.646 
-52.0707 -59.94 -197.162 -14.0999 -107.033 -195.189 -13.7871 -107.499 -195.448 
-15.8182 -103.322 -195.743 -15.8962 -103.48 -195.262 -21.4136 -86.3218 -195.77 
-22.8995 -80.6969 -195.247 -40.1913 -79.6051 -195.174 -39.6129 -79.852 -196.054 
-39.9078 -79.7039 -195.689 -22.9257 -80.3254 -195.545 -22.8258 -79.513 -196.096 
-33.2261 -78.3912 -195.207 -33.8039 -76.8852 -195.913 -33.6273 -77.3244 -195.732 
-33.4561 -77.7582 -195.534 -33.9946 -76.4501 -196.083 -84.1643 -73.8871 -195.338 
-39.0565 -72.0218 -195.367 -76.6637 -71.7143 -195.092 -76.9375 -71.3498 -195.258 
-38.946 -71.8325 -195.914 -77.8349 -70.245 -195.882 -64.6168 -67.2524 -195.578 
-65.0681 -67.1425 -195.696 -66.2467 -66.6076 -196.154 -65.5367 -66.9645 -195.847 
-60.6883 -67.0324 -194.98 -51.5634 -62.1069 -195.163 -51.6729 -61.6593 -195.639 
-51.7568 -61.2889 -195.961 -44.3158 -200.265 -193.899 -43.8033 -200.391 -194.016 
-14.2898 -111.415 -194.117 -14.7286 -111.19 -194.055 -15.1593 -110.953 -193.965 
-13.8331 -111.637 -194.167 -15.9692 -103.61 -194.752 -16.0664 -103.697 -194.136 
-11.9181 -99.9204 -194.075 -12.4128 -98.9964 -194.002 -12.6352 -98.5371 -193.918 
-12.1632 -99.4742 -194.048 -12.8918 -98.0815 -193.865 -14.3132 -95.815 -193.976 
-14.1771 -95.8763 -194.438 -21.6148 -85.7343 -194.398 -21.529 -85.9774 -194.914 
-22.726 -81.7146 -194.434 -22.5375 -82.5515 -193.837 -22.6354 -82.1303 -194.132 
-32.6729 -80.8111 -193.91 -22.826 -81.185 -194.849 -32.8584 -79.8671 -194.393 
-33.0345 -79.0593 -194.837 -33.0638 -78.9444 -194.901 -76.3379 -72.0912 -194.949 
-75.9929 -72.4512 -194.827 -39.201 -72.2544 -194.759 -39.1815 -72.2115 -194.853 
-58.7053 -67.3926 -194.196 -59.1862 -67.2155 -194.47 -58.2654 -67.5674 -193.953 
-57.8079 -67.7698 -193.768 -60.0138 -66.9822 -194.851 -51.4514 -62.465 -194.763 
-46.716 -200.166 -193.695 -46.1776 -200.068 -193.726 -45.22 -200.092 -193.723 
-50.7173 -196.935 -192.55 -21.8156 -107.682 -192.996 -24.1256 -105.541 -192.733 
-16.1603 -103.705 -193.668 -16.2857 -103.658 -193.128 -22.1847 -84.3351 -193.022 
-32.1382 -83.1233 -192.757 -22.4314 -83.0092 -193.538 -22.2835 -83.737 -193.133 
-32.3797 -82.1341 -193.268 -32.249 -82.6683 -193 -32.544 -81.4194 -193.616 
-39.8541 -73.2015 -192.799 -39.637 -72.9544 -193.258 -39.4831 -72.7215 -193.695 
-56.6802 -68.2951 -193.405 -56.162 -68.5728 -193.24 -55.355 -69.0488 -192.949 
-54.6394 -69.4389 -192.656 -54.7815 -69.3745 -192.714 -57.1504 -68.063 -193.552 
-48.351 -202.605 -191.841 -48.4509 -201.657 -191.965 -59.6775 -198.976 -191.659 
-60.2575 -198.62 -191.871 -50.1917 -198.252 -191.533 -68.781 -196.327 -191.632 
-50.4256 -197.486 -192.015 -75.1127 -193.778 -191.379 -25.7812 -104.661 -191.913 
-25.2517 -104.797 -192.481 -16.5848 -103.437 -191.938 -18.548 -95.9374 -192.367 
-31.7162 -89.9103 -192.465 -31.6933 -85.4391 -191.546 -31.7706 -84.9606 -191.779 
-31.8088 -84.7402 -191.891 -22.3339 -84.921 -191.966 -31.9959 -83.7581 -192.414 
-83.1023 -75.5627 -192.486 -40.7218 -74.2122 -191.664 -40.1112 -73.5008 -192.397 
-40.3381 -73.7344 -192.108 -54.1544 -69.6058 -192.47 -52.6736 -69.7974 -191.921 
-53.3149 -69.747 -192.153 -52.1698 -69.8302 -191.721 -51.7103 -69.9978 -191.466 
-51.4439 -68.8363 -191.778 -51.0376 -67.6654 -192.002 -51.2347 -68.2521 -191.892 
-50.898 -67.2094 -192.082 -50.7711 -66.6958 -192.166 -50.669 -66.0598 -192.265 
-50.6238 -65.4437 -192.361 -57.8657 -62.1638 -191.92 -47.0322 -59.347 -191.817 
-59.5851 -198.787 -191.2 -59.2132 -198.402 -190.307 -59.4093 -198.633 -190.74 
-68.3817 -196.333 -191.046 -67.791 -196.034 -190.163 -75.1098 -193.587 -190.915 
-90.344 -179.551 -191.104 -27.3241 -104.121 -190.498 -16.7369 -103.305 -191.333 
-16.8619 -103.198 -190.845 -30.8206 -88.3205 -190.58 -30.6205 -88.7638 -190.376 
-31.3614 -87.2376 -190.817 -31.4966 -86.7501 -190.976 -31.62 -85.9298 -191.325 
-31.5925 -86.1 -191.252 -22.6701 -85.72 -190.252 -22.5936 -85.5139 -190.677 
-22.4968 -85.2863 -191.164 -41.3308 -74.9726 -190.837 -41.015 -74.6023 -191.341 
[...]
POINT_DATA 13608
SCALARS scale float
LOOKUP_TABLE default
1.64534 1.56956 1.50532 1.91083 1.71953 1.74919 1.75488 1.75379 1.58817 
1.6233 1.70461 1.7137 1.61067 1.49112 1.55126 1.50314 1.57827 1.5442 
3.15962 1.5068 1.51145 1.52998 1.55686 1.54072 1.54139 1.49586 1.50429 
1.61696 1.95896 1.72023 2.05591 1.54589 1.56142 1.50915 1.51214 1.49004 
1.63066 1.52225 2.12409 2.25141 1.54659 1.48976 1.72483 1.56143 1.6967 
1.64615 1.83931 1.79912 1.60356 1.7882 1.65281 1.56536 1.52009 1.54612 
1.57022 1.91993 1.77164 1.66008 1.72293 1.6624 1.66981 1.63755 1.60535 
1.85458 1.85852 1.76809 2.15651 1.78353 1.62403 1.59503 1.48649 1.8962 
1.82486 1.89972 1.59002 1.54605 1.49908 1.6068 1.66157 1.71758 2.29994 
2.03075 2.0498 2.25546 1.9592 1.79489 1.62772 1.64341 1.58728 2.15497 
1.57612 2.15843 2.1997 1.5034 1.58554 1.64828 1.57247 1.52461 1.55658 
2.21032 1.50453 1.89628 1.90217 1.75528 1.7609 1.72113 2.61068 1.93844 
1.86274 2.64242 2.53028 2.28556 2.48499 1.86517 1.99506 2.33087 1.51561 
1.92739 1.50022 1.57181 1.67198 1.52622 1.61007 1.55943 1.51299 1.53592 
1.50951 1.5534 1.55645 1.49275 1.64504 1.68041 1.68579 1.50029 1.54551 
1.76883 1.5153 1.6724 1.77277 1.99683 1.49958 1.96495 1.95733 1.96921 
2.80075 2.74658 2.60406 2.19346 2.08137 2.45306 1.83757 2.75502 2.70231 
1.71221 1.54794 1.60851 1.5114 1.62124 2.11481 2.16449 2.0692 2.08029 
1.85991 1.51126 1.54253 1.51746 1.50734 1.60369 1.64 1.67466 1.60398 
1.54683 1.54377 1.51455 1.55488 1.59109 1.55893 1.5565 1.5603 1.59221 
2.05316 1.79766 1.5736 1.7249 1.58812 1.74828 1.90525 1.90167 1.85641 
1.83731 1.89676 1.89727 1.93907 1.82878 1.93195 1.54035 1.71764 1.57936 
1.50856 1.61558 1.50477 1.71408 1.72685 1.55623 1.70538 2.02711 1.64986 
1.53044 1.91529 2.08465 2.23892 1.55404 1.55378 1.56984 1.55788 1.51348 
1.49786 1.73289 1.53702 1.48311 1.52331 1.64928 1.91905 1.91801 1.90187 
1.92618 1.9808 1.53395 1.76608 1.56108 1.50585 1.75812 1.49642 2.06401 
1.88104 1.55865 1.75074 1.64485 1.52184 1.48611 1.59691 1.55169 1.49334 
1.51681 1.51125 1.49344 1.49958 1.54751 1.57656 1.52021 1.73048 1.73196 
1.63824 1.57717 1.57464 1.52808 1.60774 1.54736 1.57502 1.72258 1.64506 
1.9432 1.50983 1.9047 1.90251 1.8917 1.56164 1.5021 1.80391 1.75934 
1.74427 1.77753 1.79841 1.77975 2.11212 1.53942 1.49949 1.6749 1.54206 
1.99816 1.51646 1.65131 1.5666 1.53323 2.64096 1.88603 1.8016 2.08095 
1.88808 1.87689 1.93162 1.8253 1.92149 1.89063 1.73536 1.69991 1.6908 
1.67423 1.65751 1.75989 1.89699 1.51333 1.72524 1.61269 1.62865 1.50686 
1.86434 1.48581 1.55253 1.50989 1.54194 1.71652 2.16085 1.76825 1.80276 
1.81545 2.46497 1.87568 1.54216 1.66448 1.79228 1.696 1.63926 1.64803 
1.63143 1.75533 1.79284 1.54959 1.5204 1.51588 1.54999 1.59205 1.59331 
1.49751 1.57856 1.5068 1.65393 1.59585 1.56009 1.55505 1.49881 1.49291 
1.49311 1.50478 1.54524 1.57599 2.55044 2.66155 1.90369 1.69358 1.72664 
1.73346 2.47592 2.45231 2.39609 1.81779 1.71673 1.80473 1.80806 1.72621 
1.72308 1.71421 1.71535 1.48209 1.51326 1.53308 1.59245 1.6395 3.10364 
3.08125 1.5332 1.4836 1.56932 1.6664 1.5354 1.52173 1.49231 1.53562 
1.48993 1.57551 1.56986 1.54815 2.3099 2.55037 2.43995 2.482 2.45121 
1.6245 1.50945 1.67455 1.48838 1.5502 1.59778 1.68086 1.6038 3.65311 
1.53597 1.64115 1.61135 1.59453 2.96105 1.64855 1.6729 1.54508 1.56223 
1.5509 1.64896 1.69545 1.87311 1.54139 1.6445 1.60316 1.51391 1.58769 
1.56647 1.53374 1.59988 1.55992 1.59338 1.63961 1.56893 1.51249 1.59073 
1.52069 2.07882 1.54113 1.51964 1.53724 1.5029 2.21276 2.08813 2.12444 
1.54553 1.50033 2.2127 2.25076 1.60749 1.64678 1.5197 1.74165 1.72723 
1.4849 1.48733 2.46033 1.99484 2.50701 2.38867 1.74696 1.7262 1.69546 
2.23122 1.60115 1.60053 2.00634 1.88625 2.11795 1.57609 3.70437 3.79364 
1.5489 1.7593 1.59415 1.54738 1.84787 1.84684 1.53793 1.71232 1.54743 
1.51739 1.77377 1.62052 1.58169 1.53989 1.49491 1.81051 1.54357 1.57148 
1.95841 1.99099 2.07308 1.50169 1.54562 1.64831 1.55516 1.55094 1.55267 
1.58061 1.55871 1.52814 1.55366 1.6338 1.60736 3.85238 1.8102 1.76025 
1.69884 1.71857 1.90958 1.92943 1.90665 1.91566 1.91122 1.92717 1.96657 
2.21946 1.71333 1.90074 1.88926 1.87131 2.09233 2.05344 2.35005 2.2887 
1.85342 5.22021 2.33174 2.26668 1.4846 1.55814 1.64823 1.63447 1.9417 
1.67993 1.66443 1.58625 1.64687 1.52963 2.30995 2.40762 1.83323 1.6517 
2.54873 2.12564 2.63758 2.49291 1.60228 1.59201 2.37275 1.65403 1.68259 
1.92279 2.07498 1.52433 1.48709 1.60369 1.5857 1.51547 2.06468 2.12615 
2.02506 1.94604 1.65272 1.58589 1.48407 2.27451 2.42722 1.54826 1.51206 
2.20363 1.54641 1.55526 1.54254 1.66141 1.51197 1.52019 1.53518 1.97493 
1.53607 3.80246 2.34957 2.02405 2.07294 2.09541 2.06177 2.10803 2.09134 
2.03392 2.28885 2.37765 2.40624 2.53483 5.47355 1.7598 1.48675 1.72097 
4.97574 2.09135 2.25937 2.29656 2.34859 1.65113 1.65172 1.5231 2.16716 
1.60502 1.63993 1.60781 1.68999 2.02998 1.5851 1.5435 2.12865 1.56878 
1.48552 1.52932 2.07017 2.02713 1.99055 2.24344 1.85386 1.94823 2.2913 
2.34831 1.72919 1.75507 1.78924 1.88854 1.50194 1.52391 1.95659 1.52219 
2.21593 1.53014 1.97849 2.00989 1.70966 1.71372 1.82477 1.68778 1.60144 
1.57688 1.69714 2.11995 2.04463 1.9046 1.89105 1.54139 1.51841 1.54606 
1.77771 2.35707 2.28075 2.34249 2.10902 2.91345 1.84044 1.71002 1.52606 
1.727 1.78165 1.69259 1.68676 1.60732 1.51211 1.8443 1.67413 1.94731 
1.97336 1.94981 1.95 2.0572 1.4841 2.38386 2.30382 2.19181 2.29521 
2.18292 2.51486 2.54944 2.42038 2.29567 1.77259 1.71035 2.27372 2.11809 
2.06973 1.99147 1.65889 1.74562 2.44517 2.15236 2.1528 1.55796 2.17453 
2.18027 2.03664 1.79488 2.00698 2.04788 2.28151 2.21904 2.0305 2.01066 
2.0784 1.95114 1.98612 1.58591 1.62614 1.93891 1.79516 2.08762 2.28462 
1.96763 2.10939 2.22993 2.21706 2.21141 2.27728 2.2191 2.24402 1.94531 
1.96719 1.50695 1.51716 1.64284 1.87777 1.58874 1.57148 1.76021 1.88703 
1.67557 1.48391 3.19138 3.00979 1.52081 3.31521 3.28272 3.31424 1.74085 
1.62552 1.75203 1.99146 1.99852 1.94022 1.87359 1.86837 1.84145 1.54291 
1.50494 1.63016 1.59268 1.52584 1.52258 1.5763 1.63337 1.61509 1.59905 
1.60297 1.49862 1.59162 1.58096 1.59798 1.64328 1.69741 1.60617 1.61117 
1.53037 1.55403 1.49066 1.70383 1.64123 1.55974 1.82655 1.78837 1.59239 
1.55785 1.56538 1.99626 1.93335 2.13095 2.06626 2.10651 2.11876 2.39162 
2.20996 2.17559 2.22565 2.43166 2.43686 1.54674 2.07545 2.40836 1.67913 
1.68563 1.81284 1.72667 1.69684 1.71734 1.70803 1.66909 1.7437 1.67894 
1.68963 1.6826 1.64584 1.5709 1.58713 1.66327 1.65707 1.66941 1.73959 
1.71269 1.69841 2.04601 2.27057 2.19608 1.79041 1.86296 1.9245 3.27697 
1.77604 1.8026 1.92316 2.09735 1.96388 1.70318 1.89476 1.90476 2.21438 
2.17423 2.01429 1.91612 1.90819 1.80007 1.77115 1.89111 1.99929 2.00488 
2.05765 2.67373 2.18976 1.82328 1.83686 1.49456 1.58147 1.88927 1.90725 
1.68987 1.60181 1.58337 1.50027 1.51943 1.59949 1.57776 1.61066 1.56634 
1.63569 1.5878 1.69369 1.59264 1.50238 1.56178 1.60094 1.48779 1.51826 
1.601 1.55599 1.68236 1.49009 1.68369 1.72815 1.68182 1.80418 1.88682 
2.32191 1.81008 1.9922 2.29712 2.32322 2.3543 1.49806 1.66001 1.69445 
1.69097 1.96488 1.88825 1.89096 1.95435 1.99484 2.01057 1.87913 3.98871 
4.38267 1.88043 1.81834 1.52709 1.62141 1.87572 1.96646 2.00711 2.00206 
1.99495 2.13489 1.98423 1.97768 1.77499 1.94361 1.91935 1.83031 1.86512 
1.86383 1.84133 1.84769 2.04647 1.95527 2.16903 2.2621 1.66715 2.51735 
1.57686 1.84117 1.83137 1.75807 1.59608 1.63437 1.71292 1.48999 1.5408 
1.49298 1.54938 1.57638 1.59742 1.63998 1.58814 1.71529 2.10355 2.12298 
2.11348 1.55419 1.50886 1.48543 1.509 1.61728 1.71361 1.82113 1.59003 
1.54653 2.12055 2.24445 1.75275 1.88234 1.5364 2.84924 1.80902 2.51214 
2.71551 2.30902 2.39953 1.83237 2.02781 1.97079 1.65181 1.68527 1.77987 
2.10886 2.05277 2.12155 2.06818 2.05083 1.97932 2.0634 1.91834 2.17784 
2.00346 1.96106 4.83941 1.90079 2.78999 2.02885 2.01382 2.54417 1.7395 
1.93481 1.7311 1.75228 1.76094 2.57334 1.73651 1.76111 1.83208 1.90525 
1.90267 1.99911 1.63461 1.48401 1.49551 1.64573 2.23077 2.28843 2.03338 
2.35867 2.36802 2.17383 1.70844 1.61263 1.51371 1.79649 1.77311 1.6237 
1.88961 1.68575 1.71368 1.7677 1.87708 4.30681 4.41996 4.98783 1.60842 
1.83599 1.64624 1.57313 1.56081 1.49187 1.4851 1.59927 2.07665 2.11871 
2.31584 2.24996 1.89639 2.08936 2.19152 1.61339 1.831 1.83402 1.7165 
1.56923 1.52562 1.63224 2.20239 2.14782 2.04274 1.97735 2.0226 2.08197 
1.56116 1.48586 1.7546 2.84634 2.92455 2.9309 2.99271 2.05049 1.98911 
1.97831 1.7578 2.09703 2.11029 2.08993 2.13359 1.51741 2.84708 1.70936 
1.67189 2.68529 2.69422 2.78539 2.0053 2.00061 2.07533 2.00108 2.05417 
2.00176 1.8066 2.0917 1.90448 1.88416 1.84805 1.87743 1.56228 2.15449 
1.97155 1.83974 2.30578 1.77861 1.93255 1.78781 1.48323 4.17629 1.93756 
1.99847 2.1811 4.03968 3.76798 3.90412 2.06819 1.95977 2.01491 1.93812 
1.93921 1.66912 1.7213 1.74206 1.62883 1.62907 1.62727 1.61662 1.53128 
1.49752 1.7321 1.9785 1.61925 1.49083 1.75068 1.59348 1.71361 1.73391 
1.73698 1.74382 1.68284 1.81299 1.56851 2.79741 2.84512 2.82391 2.83897 
1.92354 1.92288 2.70505 2.86851 1.67344 1.70886 1.71852 1.71534 1.6882 
2.13007 2.30673 2.09734 2.05004 2.87839 2.88208 2.89436 1.79304 1.8908 
1.9851 1.90104 1.95158 1.99653 1.59561 1.56887 1.6423 1.66982 1.7294 
1.5597 1.78785 2.58553 2.49058 2.68222 2.62094 1.62229 1.72512 1.54002 
1.82885 2.38059 1.87904 3.63861 3.50924 3.11312 3.14965 1.56064 1.55809 
1.78951 1.70333 1.82699 1.99953 1.73232 1.8146 1.71119 1.7889 1.61 
2.04991 1.91325 1.97538 1.52191 2.13346 2.16969 2.08803 2.02132 1.90792 
1.7682 2.26916 2.29045 3.2158 2.72342 1.70696 1.57603 2.73103 2.69112 
2.23119 2.759 2.24864 3.07645 3.623 2.05189 1.79141 2.55755 2.44024 
2.6693 2.76585 2.7018 2.69154 2.67953 2.8173 2.79195 2.77577 2.79287 
2.05378 2.01985 2.00492 2.79654 2.79805 2.8024 2.07148 2.06115 2.49971 
2.69151 1.52915 2.20205 1.98568 1.57428 1.65917 1.91098 1.51338 1.75879 
1.50591 1.57107 1.50124 1.64261 1.66924 1.60781 1.95145 1.64989 1.68929 
1.6758 2.00812 2.09556 1.63483 1.5808 1.71396 1.72051 1.49207 1.52638 
1.52145 1.56938 1.59066 1.80606 1.83479 1.95276 1.7547 1.91573 2.81233 
2.94691 2.91133 1.79336 1.79713 3.68042 3.18206 3.14123 3.07466 3.16177 
3.03311 1.81085 1.67433 2.06927 2.3748 2.2579 2.15219 1.95634 2.16994 
1.9341 1.73434 1.54188 2.21573 2.2047 3.3461 3.46451 3.45459 1.64051 
1.99801 2.6723 2.61895 2.6683 2.60279 2.36804 1.66309 1.67337 1.65468 
1.68885 1.49071 1.80785 1.72167 2.32846 2.46729 3.78616 2.36801 2.26168 
2.31413 2.25773 2.74928 2.41199 2.85012 1.9 2.68315 2.68976 2.49651 
2.6092 1.93444 1.76386 1.889 1.94334 1.92953 2.90363 4.67632 2.90064 
2.91427 1.96202 2.01041 2.85301 2.79783 2.83828 1.6071 1.48322 1.49215 
1.51645 1.70812 1.68532 1.62654 1.53305 1.54148 2.10755 2.09333 1.96656 
1.90446 1.88025 1.70532 1.49638 3.23204 2.6955 1.75142 1.76202 1.57425 
1.72858 4.90366 4.32578 4.67925 3.11764 1.56754 2.15983 1.98271 2.06926 
2.20066 2.0747 2.14461 1.8615 1.73357 1.76925 1.51199 1.7201 1.87714 
2.75128 2.15985 2.35132 2.05054 2.76206 2.6796 1.77855 3.16429 2.70924 
2.66436 2.68213 2.66152 2.63273 2.68484 2.6845 1.76806 1.89162 1.97845 
1.97841 2.28778 3.51778 1.69992 1.70541 2.68792 2.7625 3.62022 3.61245 
3.6041 2.2397 2.11295 3.42826 3.54906 2.04598 2.032 2.16851 2.28784 
1.97611 1.86882 1.76643 2.13419 6 6 6 5.97397 2.81746 
2.87244 2.91472 1.55639 1.49127 1.5584 1.83014 3.59609 3.66488 1.59135 
1.5913 1.75207 1.67939 1.54695 1.7442 1.77907 1.71322 3.63774 3.87187 
4.00701 4.13575 2.08864 1.86572 1.8881 1.87611 1.96499 1.95543 1.89902 
1.76557 2.8539 2.24077 2.92138 1.53023 1.5441 2.49114 1.94287 1.99567 
2.95464 2.48987 2.14996 2.00975 2.63129 2.70451 2.79391 2.80289 2.77673 
2.75756 2.75375 2.78045 2.74843 2.75368 3.86991 3.69657 2.81291 2.81929 
4.39689 2.80905 3.10148 3.21177 3.12287 3.44585 3.45781 6 2.48062 
2.72869 2.50357 2.80235 2.74546 2.65636 2.69388 2.80455 2.82298 1.91298 
2.18399 2.01901 1.85022 1.78678 1.5553 1.59352 1.51391 1.51756 2.11605 
1.53426 1.68663 1.96052 2.29172 1.66426 1.70378 1.54175 1.53762 1.50063 
3.60715 3.64835 1.71968 1.75616 1.7395 1.78914 1.78568 3.73866 3.67354 
3.7177 1.84789 1.92549 1.96618 2.01709 1.74491 1.64785 1.69578 1.65393 
1.64836 1.61645 1.61981 1.61631 1.56035 2.88801 2.93902 2.94226 2.88285 
1.52218 2.46996 2.74637 2.33845 1.72362 1.72064 1.70217 1.53765 1.72439 
1.7242 1.87951 1.95326 1.91098 1.88661 3.25568 3.40246 1.85362 1.82327 
1.83662 1.86633 1.8321 1.8922 1.90135 2.11433 2.15383 2.07485 2.21309 
2.16755 2.4797 2.27081 2.03375 2.11555 2.1248 1.801 2.02878 3.98234 
4.07499 1.66178 4.83238 1.58969 1.94889 1.80891 1.8518 2.60688 2.54094 
2.57157 2.61623 2.55325 2.85695 2.81703 2.68865 2.65318 2.5925 2.58899 
2.43607 2.43263 2.46869 1.84894 1.82741 1.74987 1.70229 1.69468 1.73713 
1.67827 1.76274 1.77912 1.56546 1.72023 1.65719 1.61981 1.59426 1.57939 
1.95718 1.72541 1.66312 3.52589 3.55275 1.94192 1.84077 1.77997 1.82526 
1.83814 1.53531 1.70421 1.60121 1.68174 1.54803 1.62165 1.66413 1.70141 
1.7192 1.73083 1.70897 1.65785 1.54386 1.51303 3.20129 3.54441 3.52723 
3.5516 1.76403 3.02763 2.98962 3.02114 1.52212 1.64957 1.48824 1.48326 
1.70447 2.04817 2.00355 1.55174 1.52471 2.04619 1.93877 4.06532 3.84584 
1.73695 1.77743 1.70435 1.65029 1.57616 1.58583 1.63687 1.6325 1.64571 
1.61025 1.52243 4.12573 4.08973 4.11117 1.7761 1.74501 3.22549 3.85454 
3.18435 4.82454 1.61943 1.64244 1.81603 1.7258 1.67236 1.95974 2.12193 
2.07432 1.49075 2.08175 1.5435 1.49495 1.52817 1.49537 1.49123 1.9319 
1.51452 1.53551 1.92736 2.66 2.71008 3.01654 1.77239 1.78653 1.65091 
1.68704 1.74717 1.75915 3.62451 3.48731 5.25608 1.84241 1.8625 1.84786 
1.75713 1.7674 2.77675 1.77738 1.74289 1.72087 1.86687 1.82738 1.74597 
1.52555 1.50825 1.52973 1.63338 3.55288 1.78845 3.55308 3.03734 2.97731 
1.73607 1.5939 1.88707 1.79171 1.74386 1.88802 1.85325 4.25863 4.64209 
4.04167 3.78164 1.80135 1.67008 2.07785 1.87779 2.01778 1.92816 1.9467 
1.98393 5.83947 2.00959 2.10029 2.02646 1.82319 1.69019 1.62247 1.61483 
1.68135 1.63982 1.75348 1.54617 1.6946 3.64038 2.28629 2.07147 2.37303 
1.81479 2.05992 1.60609 1.80837 1.67537 2.13987 2.15762 2.06392 1.49872 
1.49187 3.07466 1.8551 2.30635 1.69671 3.78782 3.73628 6 6 
6 1.79792 1.91924 2.0022 1.85817 2.22701 2.15774 3.37012 2.90893 
1.99724 2.43109 2.35488 1.74823 2.19488 2.07024 1.89585 3.66848 3.47497 
1.60818 1.5573 1.77585 1.69734 1.59448 1.93845 1.55208 1.54626 3.47 
3.55997 2.52321 1.79678 1.54717 2.22511 2.17315 1.51196 1.52795 2.22149 
2.25816 2.0846 2.09308 2.01992 2.00625 1.90695 1.66618 1.59422 2.5819 
2.65929 3.84171 3.80202 3.67218 6 6 1.51592 1.4882 1.52097 
2.27581 2.23706 2.32583 1.6813 1.48431 1.48495 1.54457 3.3459 3.4503 
4.39494 2.51617 2.40097 2.20681 2.08286 3.10045 3.06769 3.54988 3.0849 
1.6917 1.80027 1.85793 3.80679 3.8707 3.08486 1.79126 1.65204 1.7064 
1.77453 1.99059 2.12488 1.9834 1.90781 2.0278 2.25185 2.33037 3.42455 
2.11566 3.42626 3.42453 3.42443 3.43986 3.77865 1.49493 1.49284 1.75777 
1.99138 2.10238 2.19074 3.09887 2.86305 2.49197 2.31105 2.61408 2.75508 
2.8634 2.93657 1.53394 2.63391 2.19954 1.83356 2.76491 3.33266 2.56467 
1.541 5.99133 5.28695 1.59638 1.6073 1.70923 1.83694 1.69119 2.49222 
2.5306 2.73524 1.49115 1.49726 2.92222 2.78237 3.06859 1.6639 1.58611 
1.51029 1.77739 1.75007 1.75101 1.50175 1.51597 1.555 1.49258 3.12378 
2.55232 2.33653 2.88682 2.2282 2.84002 2.94542 2.90242 2.68362 2.54834 
2.21433 2.22808 4.62769 1.95361 1.8452 1.92566 3.90642 3.58686 2.07947 
2.02544 2.15654 2.13219 2.25851 2.62402 2.44232 2.48831 1.76706 1.74602 
1.99745 1.88096 5.84388 2.54294 2.60749 2.42724 1.92073 2.30068 2.0683 
2.32342 3.61669 2.32994 2.26081 1.54515 1.54457 1.52001 1.51052 1.63665 
1.90594 2.10684 1.8422 1.76144 1.76568 1.73288 2.00573 1.71382 3.84231 
4.25856 1.68839 1.8163 1.72016 1.7754 5.34539 1.488 1.49907 1.48878 
1.53872 1.52345 1.50991 1.54302 1.71702 1.71551 1.49989 1.61229 1.7517 
1.5002 1.53887 1.55533 1.56783 1.57786 1.48636 1.55677 1.53036 1.56747 
1.55475 1.6751 1.88171 1.92051 2.33737 1.51495 1.58443 1.54359 2.58994 
2.60346 1.94159 1.96606 1.94912 2.05888 2.0998 2.13586 2.18929 3.26288 
1.89274 1.62566 1.79307 2.09022 2.08643 1.73241 1.89318 1.84679 1.86125 
1.85507 2.18289 1.61653 2.80981 2.24452 2.2413 2.99418 1.75055 1.78952 
6 1.49727 2.47585 1.64109 1.6052 1.55449 2.53144 2.56242 2.45577 
2.48084 1.57737 1.55371 1.82333 1.79909 1.8175 2.07832 2.13069 1.93202 
1.70686 1.72311 1.7687 1.82344 1.76299 2.84622 2.75143 2.85637 3.81995 
3.01109 1.90545 2.21339 2.09902 2.31325 1.75118 1.76685 1.59517 1.72234 
2.21978 2.19913 2.18099 1.70905 1.73391 1.7107 1.8518 3.66242 2.664 
3.35765 3.45023 1.67901 1.75638 1.68524 1.85274 1.88954 4.91556 1.48998 
1.49977 1.49909 2.69892 1.57965 1.6675 1.56366 1.64445 1.52373 1.50271 
1.7706 1.83425 1.81299 1.52415 1.49357 1.49871 1.69285 1.73685 2.28526 
1.72346 1.5195 1.65496 2.33667 2.22776 2.21213 1.69938 2.25357 2.30514 
1.59152 1.71189 2.54091 2.50888 2.55572 1.71149 1.75712 2.01161 1.81798 
1.90091 2.11817 2.10047 1.81255 1.77401 1.7797 1.77482 2.0028 1.91988 
1.8598 1.70645 1.85507 2.04913 2.34169 1.58789 1.62635 1.65939 6 
6 6 2.2225 2.39072 2.3609 2.27954 2.25325 2.27778 2.38688 
1.49609 1.50087 1.61214 1.53724 1.62445 2.00449 1.4973 2.02522 1.62079 
1.68842 1.63767 1.87851 1.82294 1.77172 1.64918 2.29585 2.2041 2.11931 
2.2592 2.26548 2.5122 1.53634 1.70987 1.51716 1.90137 2.40348 2.63033 
1.60741 1.49791 1.55759 1.51104 1.65518 1.6082 1.63821 1.51812 1.4908 
1.6804 1.60445 1.52491 1.53324 2.05637 1.99559 1.93058 1.68663 1.82488 
1.69535 2.11367 2.04587 1.56505 1.71777 1.69383 1.67983 1.65877 1.57347 
1.67011 1.69387 1.7109 1.49137 2.71466 2.4921 2.50305 1.73595 2.35179 
2.39739 2.50873 3.52196 4.16946 3.25014 1.7848 1.83633 4.47048 1.68341 
1.65405 1.62352 1.65356 1.68482 1.80546 3.00704 1.71647 1.85757 1.51809 
1.52227 1.60198 1.7903 1.72104 1.73761 1.77313 1.7731 1.53323 1.54331 
1.77468 1.68777 1.76887 1.55655 1.75786 1.50601 1.52556 1.65452 1.60762 
2.11517 1.7237 1.55604 1.51461 1.92477 1.86574 1.86168 1.88296 1.99086 
1.99561 2.62117 2.29028 2.13185 2.23519 2.13212 2.13902 2.15436 2.14135 
1.56199 1.55495 1.53253 1.53552 1.48359 1.52702 2.39149 1.89599 1.81865 
2.33929 2.41477 1.48283 1.69387 1.68616 1.65975 2.14216 2.17026 2.14648 
2.21645 2.07273 1.80939 2.00273 1.81672 3.17596 3.1816 1.7384 2.86929 
2.98546 3.11454 2.78821 2.75019 2.7651 2.84254 2.78717 2.80244 1.66894 
1.64004 2.89289 1.98292 6 6 1.62251 2.43974 2.4466 2.47974 
2.47651 2.69998 2.46612 1.7217 1.66837 1.93303 1.69679 1.97631 1.968 
1.61028 1.54719 1.8647 1.91445 1.76209 1.76331 1.84441 1.81399 1.71879 
1.75002 1.58438 1.6452 1.52065 1.64361 1.71629 1.57266 1.85904 1.5891 
1.56585 1.55593 1.50786 1.83298 1.75629 1.74514 1.66778 1.60274 1.54287 
1.53756 2.00102 2.01785 1.98912 1.51968 1.74544 1.85599 1.66843 1.74119 
1.59585 1.62668 2.24217 2.10156 2.12686 2.0892 2.06754 2.06997 4.9147 
5.06778 4.8211 1.87936 1.80714 5.04565 1.58927 1.57555 3.95122 3.80945 
1.52548 1.90073 1.70641 1.84695 1.56224 1.55395 1.67589 1.61132 1.71129 
1.50347 1.48722 1.54448 1.48398 2.09028 1.98232 1.50925 1.50974 1.51131 
1.99817 2.04732 2.04827 1.99975 1.98517 2.12053 1.55624 4.63598 4.6433 
1.59107 1.55123 1.82876 2.09733 1.56704 1.49402 2.49628 2.24392 2.52257 
1.48606 1.60639 3.99059 1.53082 1.55516 1.58672 1.56797 1.56909 1.50059 
1.51651 2.17553 2.1795 2.10075 1.64647 1.66731 2.20356 2.15751 2.4341 
2.49851 2.54234 2.58893 2.52221 1.69919 2.61807 2.6438 2.6696 1.53839 
1.55721 1.53793 3.14943 2.95932 2.72022 1.59972 3.46661 1.79889 1.78752 
3.77626 3.6779 3.88552 3.87055 1.48383 1.52708 1.49542 3.63381 3.68302 
3.83278 3.77038 1.51605 1.55772 3.42218 6 1.64227 1.705 1.57239 
3.56022 3.25567 3.63139 3.13014 2.76615 2.8164 2.42334 2.73101 1.84572 
3.49769 2.15718 1.9375 3.21545 1.89369 1.88861 1.87841 1.71393 1.77339 
1.74861 1.7863 1.69005 2.05286 2.13683 1.9232 1.77355 1.62094 1.76834 
1.58104 1.74367 1.98241 2.17487 1.72556 1.88069 1.62348 1.62863 1.57193 
1.87689 1.5176 1.55184 1.51198 1.49577 1.51309 1.55718 1.91039 1.9801 