# vtk DataFile Version 4.0
vtk output
ASCII
DATASET POLYDATA
FIELD FieldData 7
irad 1 1 float
0.8 
srad 1 1 float
4 
spacing 3 1 float
0.625413 0.625413 0.625282 
liveth 1 1 float
-90 
seedth 1 1 float
-70 
AV_classification_dnn_model_name 1 1 string
Model_v03_all_points.hdf5

vessel_sizing_dnn_model_name 1 1 string
Model_v01_df93962_best.hdf5

POINTS 164 float
-25.796 -87.3519 -186.522 -29.0799 -90.9218 -186.15 -40.1654 -95.4262 -174.716 
-40.153 -94.9249 -174.975 -40.1945 -94.4342 -175.204 -40.2852 -93.9765 -175.435 
-40.3019 -96.0956 -174.019 -57.3975 -176.419 -170.458 -47.7515 -97.8675 -170.675 
-57.1348 -175.949 -168.993 -57.2925 -176.166 -169.485 -56.9793 -175.743 -168.496 
-56.6755 -175.339 -167.497 -56.8262 -175.541 -167.997 -56.416 -174.971 -166.688 
-56.0806 -174.895 -166.11 -40.2482 -96.0036 -166.229 -60.1509 -171.84 -165.077 
-40.0601 -96.074 -165.323 -39.8518 -96.1581 -164.226 -39.9534 -96.115 -164.775 
-39.7587 -96.2031 -163.676 -39.6783 -96.2511 -163.125 -39.6147 -96.3051 -162.571 
-54.0928 -170.16 -161.692 -53.8854 -169.65 -161.406 -39.5623 -96.4033 -161.773 
-53.7101 -169.211 -161.185 -53.5362 -168.746 -160.977 -52.995 -167.44 -160.308 
-72.3325 -121.921 -160.341 -39.6186 -96.6904 -160.379 -39.5711 -96.5563 -160.921 
-35.3286 -93.6202 -161.161 -39.8846 -97.167 -159.053 -39.8272 -97.0743 -159.27 
-39.7702 -96.9792 -159.507 -40.0065 -97.3579 -158.643 -40.2142 -97.6723 -158.039 
-28.9773 -111.101 -155.872 -27.953 -111.382 -155.991 -41.7781 -100.014 -154.54 
-41.9207 -100.439 -154.201 -42.4653 -102.963 -151.942 -42.3294 -104.571 -150.866 
-42.417 -103.77 -151.401 -26.2662 -106.272 -146.993 -26.423 -106.174 -147.699 
-26.1056 -106.256 -146.463 -25.8397 -106.116 -145.915 -42.5904 -98.9031 -146.306 
-42.5159 -99.1772 -146.078 -42.481 -99.3151 -146.671 -43.255 -153.001 -144.903 
-43.1567 -151.921 -144.915 -42.8904 -151.329 -144.304 -42.7785 -150.267 -144.277 
-69.7324 -147.896 -138.115 -32.8558 -183.394 -130.334 -41.8906 -85.3483 -129.019 
-29.6949 -100.901 -128.586 -29.8011 -99.813 -128.388 -29.6877 -100.331 -128.553 
-30.1286 -98.68 -128.006 -30.2271 -97.7188 -127.941 -38.1589 -90.4493 -127.638 
-22.1245 -103.79 -126.598 -38.5187 -89.6662 -127.347 -52.7707 -102.228 -124.114 
-53.051 -101.581 -123.256 -52.8691 -101.893 -123.638 -53.2628 -101.254 -122.872 
-40.7674 -86.3997 -122.727 -53.4781 -100.926 -122.489 -53.9183 -100.275 -121.722 
-53.6956 -100.6 -122.107 -41.295 -86.2595 -121.73 -40.9963 -86.3429 -122.211 
-54.2179 -99.8745 -121.278 -54.4579 -99.5177 -120.811 -42.1988 -86.0516 -120.476 
-41.8719 -86.1217 -120.897 -41.6049 -86.1829 -121.268 -33.472 -157.008 -119.91 
-33.6762 -157.465 -119.934 -36.5447 -146.186 -119.409 -55.0459 -98.7904 -119.967 
-55.4671 -98.29 -119.309 -43.2548 -85.8538 -119.279 -42.5364 -85.984 -120.065 
-42.8892 -85.9182 -119.666 -53.8328 -83.701 -119.38 -55.9733 -97.7172 -118.489 
-55.7203 -97.9997 -118.901 -44.2224 -85.7555 -118.158 -44.6831 -85.6748 -117.941 
-43.8269 -85.8004 -118.55 -30.6477 -93.1005 -116.719 -30.5721 -93.3443 -117.256 
-46.4732 -85.3997 -117.452 -45.6309 -85.5747 -117.458 -45.1625 -85.6188 -117.678 
-63.5575 -90.749 -114.618 -62.6831 -91.1126 -115.211 -64.233 -89.9251 -114.111 
-24.732 -135.298 -92.9795 -24.417 -135.234 -93.5687 -25.0686 -135.401 -92.3559 
-25.3356 -135.499 -91.8605 -26.1093 -135.853 -90.424 -25.86 -135.726 -90.8845 
-26.3586 -135.995 -89.9671 -26.6307 -136.172 -89.4731 -26.9197 -136.405 -88.9572 
-34.7501 -102.466 -89.7308 -34.7875 -101.922 -89.3842 -34.7961 -101.461 -89.0647 
-28.2474 -139.158 -87.88 -27.5392 -137.332 -88.4167 -27.8088 -137.859 -88.337 
-27.2218 -136.734 -88.5157 -26.9265 -118.009 -87.8842 -27.2066 -117.873 -88.3503 
-27.4903 -117.631 -88.7686 -26.9062 -135.152 -87.0146 -26.9662 -135.638 -87.3953 
51.2876 -88.298 -218.111 51.5083 -87.9775 -216.71 51.4203 -88.1028 -217.291 
51.5641 -87.7384 -215.92 51.6206 -87.4575 -214.926 51.6549 -87.2138 -213.978 
51.6762 -86.8994 -212.666 51.7061 -86.6907 -211.692 51.7769 -86.4882 -210.567 
63.0343 -75.7379 -161.32 63.4929 -74.7285 -161.813 63.2512 -75.2221 -161.588 
63.7744 -73.618 -162.016 63.6865 -74.1943 -161.961 63.823 -73.0388 -162.022 
71.4877 -84.9506 -148.289 71.9742 -84.3671 -148.396 72.4268 -83.9564 -148.567 
73.6707 -83.1159 -148.312 72.8688 -83.6329 -148.558 60.6277 -78.274 -145.179 
52.5586 -84.6683 -131.379 52.1561 -85.9218 -130.235 52.1968 -85.2787 -130.569 
51.6952 -85.7265 -129.536 51.3682 -86.1267 -128.785 45.7526 -91.0954 -122.778 
46.1053 -90.8167 -122.972 46.9362 -90.1139 -123.379 46.5063 -90.4728 -123.155 
46.8551 -89.9573 -122.756 45.0522 -91.6169 -122.379 61.9156 -112.36 -100.354 
61.9459 -112.492 -99.8101 62.0016 -112.609 -99.2632 62.0741 -112.725 -98.718 
62.1562 -112.849 -98.1758 63.5131 -110.54 -88.8615 
VERTICES 164 328
1 0 
1 1 
1 2 
1 3 
1 4 
1 5 
1 6 
1 7 
1 8 
1 9 
1 10 
1 11 
1 12 
1 13 
1 14 
1 15 
1 16 
1 17 
1 18 
1 19 
1 20 
1 21 
1 22 
1 23 
1 24 
1 25 
1 26 
1 27 
1 28 
1 29 
1 30 
1 31 
1 32 
1 33 
1 34 
1 35 
1 36 
1 37 
1 38 
1 39 
1 40 
1 41 
1 42 
1 43 
1 44 
1 45 
1 46 
1 47 
1 48 
1 49 
1 50 
1 51 
1 52 
1 53 
1 54 
1 55 
1 56 
1 57 
1 58 
1 59 
1 60 
1 61 
1 62 
1 63 
1 64 
1 65 
1 66 
1 67 
1 68 
1 69 
1 70 
1 71 
1 72 
1 73 
1 74 
1 75 
1 76 
1 77 
1 78 
1 79 
1 80 
1 81 
1 82 
1 83 
1 84 
1 85 
1 86 
1 87 
1 88 
1 89 
1 90 
1 91 
1 92 
1 93 
1 94 
1 95 
1 96 
1 97 
1 98 
1 99 
1 100 
1 101 
1 102 
1 103 
1 104 
1 105 
1 106 
1 107 
1 108 
1 109 
1 110 
1 111 
1 112 
1 113 
1 114 
1 115 
1 116 
1 117 
1 118 
1 119 
1 120 
1 121 
1 122 
1 123 
1 124 
1 125 
1 126 
1 127 
1 128 
1 129 
1 130 
1 131 
1 132 
1 133 
1 134 
1 135 
1 136 
1 137 
1 138 
1 139 
1 140 
1 141 
1 142 
1 143 
1 144 
1 145 
1 146 
1 147 
1 148 
1 149 
1 150 
1 151 
1 152 
1 153 
1 154 
1 155 
1 156 
1 157 
1 158 
1 159 
1 160 
1 161 
1 162 
1 163 

POINT_DATA 164
SCALARS scale float
LOOKUP_TABLE default
5.22021 5.47355 6 6 6 5.97397 6 5.25608 5.83947 
6 6 6 6 6 5.99133 5.28695 5.84388 5.34539 
6 6 6 6 6 6 5.06778 5.04565 6 
5.0118 5.08783 5.00903 5.35534 6 6 5.57202 6 6 
6 6 5.99945 5.3435 5.29771 5.56574 5.79876 5.84496 6 
6 5.42355 4.99797 5.50304 5.39028 5.61427 5.14667 5.87381 5.52163 
5.57118 5.09802 5.05196 6 5.33079 5.74936 5.99999 5.72657 5.71545 
5.86123 5.58493 6 5.88227 5.85659 5.60092 6 5.94808 6 
5.24857 6 6 6 5.60829 5.53736 5.8691 6 5.74617 
5.71679 5.67663 5.051 5.14741 5.3678 5.70654 5.59163 5.73257 5.75449 
5.74372 5.18549 5.55478 5.5535 5.24942 5.3751 5.33353 5.53766 5.87778 
5.82038 5.31131 5.35256 5.19873 5.49152 5.82977 5.52618 5.31606 5.62584 
5.64737 5.63741 5.63183 5.70248 5.80947 5.93079 5.32633 5.57127 5.60303 
5.0206 5.52788 5.34311 5.98809 6 6 6 5.32506 5.59856 
5.33626 5.99991 5.75085 6 6 6 6 6 5.89224 
5.84747 6 6 6 6 6 5.58553 5.47472 5.44927 
5.03051 5.37613 6 5.25014 5.83705 5.42868 5.35437 5.42905 5.83853 
5.7911 5.64742 5.69884 5.01517 5.92346 6 6 6 6 
6 5.18982 
FIELD FieldData 11
hevec1 3 164 float
-0.511224 -0.196307 -0.836728 -0.277643 -0.237452 -0.930877 -0.0147083 0.970727 0.239736 
-0.0847289 0.928321 0.361995 -0.195632 0.871258 0.450153 -0.341016 0.794408 0.502617 
0.0495796 0.998522 0.022261 0.184253 0.873673 -0.450274 0.173608 -0.172668 -0.96956 
0.0847674 0.85554 -0.510751 0.113014 0.858291 -0.500563 0.051117 0.848605 -0.526551 
-0.0346304 0.821626 -0.568973 0.0120986 0.837452 -0.546378 -0.126727 0.789023 -0.601151 
-0.136545 0.771806 -0.621025 0.0149897 0.997752 0.0653099 -0.177166 0.937356 0.299962 
0.0536248 0.996322 0.0668274 0.103306 0.992327 0.0679295 0.0769807 0.994778 0.0670171 
0.13399 0.98836 0.0720445 0.169174 0.982123 0.0825514 0.207964 0.972716 0.102831 
-0.502537 0.547482 -0.669118 -0.515378 0.537239 -0.667653 0.26495 0.951754 0.154806 
-0.517281 0.535959 -0.66721 -0.522251 0.555568 -0.646992 -0.552786 0.609455 -0.568324 
-0.861701 0.414608 0.292527 0.336789 0.890289 0.306527 0.315713 0.91784 0.240616 
-0.122678 0.195993 -0.972901 0.327896 0.821839 0.465902 0.333001 0.832704 0.442396 
0.338842 0.844545 0.414643 0.323763 0.798862 0.506949 0.324789 0.760701 0.562001 
-0.233008 -0.429543 -0.872468 -0.306196 -0.405373 -0.861346 -0.939789 0.0369445 -0.339752 
-0.954562 0.015055 -0.297633 -0.481816 -0.52589 -0.700923 -0.125874 -0.57292 -0.809888 
-0.226701 -0.562686 -0.794979 -0.916416 -0.39333 0.0739838 -0.85859 -0.470331 0.203988 
-0.944301 -0.328904 -0.0108079 -0.957714 -0.265941 -0.109818 -0.0648084 0.565942 -0.821894 
-0.0783499 0.565432 -0.821065 -0.056096 0.577782 -0.814261 -0.465655 0.0625292 -0.882754 
-0.489471 0.0398997 -0.871106 -0.531616 0.0173684 -0.846807 -0.561311 0.00733319 -0.827573 
-0.704099 0.320202 -0.63381 -8.19628e-06 0.667005 -0.745053 0.0959741 -0.640531 -0.761911 
-0.782008 -0.223917 0.581657 -0.691549 -0.279593 0.666024 -0.720443 -0.265295 0.640765 
0.599455 0.299285 -0.742349 0.0603773 0.260525 -0.963577 -0.839707 -0.133905 -0.526271 
0.136281 0.69303 -0.70791 -0.813461 0.00723741 -0.581575 -0.817475 0.0832517 -0.569915 
-0.796564 0.14987 -0.585683 -0.810276 0.106625 -0.576267 -0.777056 0.188917 -0.600412 
-0.815203 0.262224 -0.516414 -0.753903 0.224967 -0.617268 -0.705459 0.284634 -0.649085 
-0.729099 0.258721 -0.633622 -0.793447 0.273995 -0.543478 -0.805499 0.276049 -0.524373 
-0.672152 0.326729 -0.664425 -0.651549 0.341619 -0.677333 -0.750514 0.271409 -0.602549 
-0.767259 0.272558 -0.58054 -0.779661 0.272481 -0.563811 0.477272 -0.299571 -0.826117 
0.486178 -0.307887 -0.817824 0.199462 0.917703 -0.343563 -0.600786 0.40612 -0.688566 
-0.563475 0.433537 -0.703236 -0.69157 0.260828 -0.673573 -0.734506 0.270947 -0.622164 
-0.71458 0.267489 -0.646394 -0.732379 -0.172107 0.658787 -0.500286 0.42998 -0.751553 
-0.538394 0.437382 -0.720297 -0.612712 0.247099 -0.750684 -0.537458 0.22093 -0.813836 
-0.665277 0.266026 -0.697594 0.0302332 0.766887 -0.64107 -0.104074 0.755423 -0.64692 
-0.311421 0.223871 -0.923525 -0.382841 0.205641 -0.900636 -0.456368 0.208048 -0.865127 
0.00533872 0.261497 -0.96519 0.171936 0.182561 -0.968044 -0.15146 0.320946 -0.934908 
-0.867153 0.265408 -0.421432 -0.852823 0.324671 -0.409001 -0.881493 0.171341 -0.440014 
-0.884409 0.0588619 -0.462986 -0.686576 -0.510527 -0.517663 -0.800469 -0.309277 -0.513417 
0.586931 0.62326 0.516777 0.507927 0.686222 0.520682 0.433025 0.723713 0.537335 
-0.635044 -0.462038 0.619064 0.510664 0.476777 -0.715476 0.405649 0.502209 -0.763698 
-0.606009 -0.0901756 -0.79033 -0.263036 -0.542385 -0.797891 -0.281134 -0.376518 -0.882722 
0.372709 0.706044 0.602154 -0.319663 0.943872 0.0831944 -0.312306 0.948797 0.0474292 
-0.309595 0.950867 -0.00140287 0.487046 0.818821 -0.303838 0.495391 0.85916 -0.12819 
-0.950901 -0.270734 0.149966 -0.948457 -0.287747 0.132781 -0.950326 -0.278992 0.138001 
-0.957176 -0.265979 0.114325 -0.968484 -0.23029 0.0949012 -0.975869 -0.19963 0.0884689 
-0.983325 -0.147629 0.106198 -0.981986 -0.12047 0.145569 -0.910333 0.366848 0.191615 
-0.960501 0.245676 -0.130695 -0.926838 0.370765 -0.0592036 -0.946559 0.302896 -0.110815 
-0.930123 0.33698 0.145998 -0.920808 0.387877 0.0408077 -0.93783 0.27163 0.216084 
-0.560348 0.672201 -0.483897 -0.589508 0.645609 -0.485458 -0.59934 0.612506 -0.515391 
-0.604869 0.654551 -0.453537 -0.597485 0.613799 -0.516007 -0.950379 0.141886 -0.276853 
-0.160229 0.940085 -0.300945 -0.285186 0.933052 -0.21928 -0.302255 0.924623 -0.231765 
-0.449606 0.886255 -0.111382 -0.502991 0.863422 -0.0387588 0.0176533 0.0302768 -0.999386 
0.0234403 -0.00241226 -0.999722 0.0114164 -0.0780723 -0.996882 0.0229567 -0.0398356 -0.998942 
-0.00121005 -0.100236 -0.994963 -0.00497755 0.0956985 -0.995398 0.444498 0.828773 0.339936 
0.477316 0.816843 0.323939 0.512292 0.803725 0.302628 0.551476 0.786981 0.27665 
0.595809 0.764377 0.246454 -0.867691 -0.327228 0.374211 
hevec0 3 164 float
0.804119 0.234418 -0.546298 -0.200597 -0.933284 0.297896 -0.132919 -0.239532 0.961747 
-0.118066 -0.370096 0.921461 -0.0882245 -0.472797 0.876744 -0.0486761 -0.548871 0.834489 
-0.115887 -0.0163866 0.993127 0.298266 0.386813 0.87259 0.958608 0.255239 0.126191 
0.281407 0.471172 0.835947 0.282912 0.45514 0.84428 0.28022 0.493873 0.823144 
0.282832 0.554098 0.782931 0.280331 0.521664 0.80578 0.286198 0.609349 0.739449 
0.274579 0.631821 0.724851 0.19185 -0.0669736 0.979136 0.959943 0.0973566 0.262738 
0.186484 -0.0757385 0.979534 0.161367 -0.0841108 0.983304 0.176714 -0.0797656 0.981025 
0.139708 -0.0908139 0.986019 0.111193 -0.102243 0.988525 0.0755997 -0.120799 0.989794 
-0.333507 -0.836803 -0.434206 -0.338443 -0.84336 -0.417372 0.0120866 -0.163809 0.986418 
-0.340469 -0.844145 -0.414126 -0.353693 -0.831456 -0.428465 -0.359385 -0.789668 -0.497259 
-0.504537 -0.761435 -0.407014 -0.127059 -0.279596 0.951673 -0.0702497 -0.230279 0.970586 
0.892101 0.45132 -0.0215698 -0.251674 -0.399354 0.881576 -0.234348 -0.381365 0.894227 
-0.213559 -0.36017 0.908113 -0.280918 -0.430481 0.857771 -0.314839 -0.473366 0.822679 
0.957968 -0.255772 -0.129918 0.9286 -0.326434 -0.176475 -0.273646 -0.676892 0.683327 
-0.223379 -0.697239 0.681146 0.0419561 -0.812819 0.581004 0.141359 -0.818409 0.556978 
0.0950771 -0.825117 0.556905 0.100885 -0.0481347 0.993733 0.194041 0.0701558 0.978482 
0.0341171 -0.130512 0.99086 -0.0516936 -0.216426 0.974929 0.0894206 -0.817019 -0.569636 
0.0791821 -0.817465 -0.570509 0.0665913 -0.811564 -0.580456 -0.0940702 -0.995347 -0.0208823 
-0.0814124 -0.99668 9.39349e-05 -0.0820933 -0.996139 0.031106 -0.082283 -0.995501 0.0469882 
-0.590589 -0.759638 0.272314 0.377943 -0.689789 -0.617535 0.492662 -0.634545 0.595514 
0.0967367 -0.965533 -0.241637 0.135247 -0.955862 -0.260836 0.123393 -0.958233 -0.258 
0.161943 -0.953632 -0.253695 0.199631 -0.948987 -0.244071 0.365006 -0.856724 -0.36441 
0.757479 0.387642 0.525318 0.328993 -0.818856 -0.47036 -0.419164 0.592636 0.687811 
-0.401218 0.593633 0.697585 -0.415055 0.589794 0.692728 -0.394703 0.596793 0.698604 
-0.472249 0.215242 0.854781 -0.393875 0.597208 0.698717 -0.404658 0.590118 0.698579 
-0.396733 0.594616 0.69931 -0.518248 0.164092 0.839341 -0.489706 0.188217 0.85133 
-0.411972 0.580599 0.702271 -0.427539 0.572198 0.699857 -0.592141 0.12865 0.795499 
-0.566324 0.136883 0.812736 -0.54538 0.146971 0.825203 -0.56391 -0.825412 -0.0264713 
-0.542684 -0.839912 -0.00641153 0.974886 -0.221287 -0.0250991 -0.447498 0.542887 0.710647 
-0.469813 0.532027 0.704431 -0.670126 0.116323 0.733075 -0.614816 0.122364 0.77912 
-0.641356 0.118481 0.75804 0.677019 -0.287173 0.677625 -0.514262 0.550751 0.657425 
-0.488994 0.533978 0.689748 0.754303 -0.100587 -0.648775 0.816666 -0.104224 -0.567621 
-0.700856 0.0994958 0.70633 -0.131508 0.63884 0.758017 -0.111927 0.637424 0.762341 
0.935816 -0.0966237 -0.338988 0.908705 -0.0917761 -0.407226 0.86998 -0.0996966 -0.482903 
0.803637 -0.575519 -0.151479 0.784483 -0.619744 0.0224572 0.767861 -0.557398 -0.315747 
-0.470122 -0.156864 0.86855 -0.471152 -0.140649 0.870766 -0.466601 -0.173033 0.867377 
-0.465363 -0.186614 0.865224 -0.460816 -0.245162 0.852962 -0.463788 -0.222996 0.857423 
-0.459259 -0.269368 0.846476 -0.456315 -0.298332 0.838317 -0.451772 -0.341592 0.824146 
0.140333 -0.857071 -0.495718 0.0974199 -0.858889 -0.502811 0.0693879 -0.850038 -0.52213 
-0.380693 -0.839503 0.387694 -0.491175 -0.636533 0.59462 -0.487116 -0.736529 0.4693 
-0.461239 -0.422117 0.780433 0.33638 0.0309622 0.941217 0.300696 0.051371 0.952335 
0.259637 0.0859551 0.961873 -0.113207 0.404142 0.907664 -0.174164 0.24281 0.954311 
0.0625087 0.306563 0.949796 0.053111 0.268739 0.961748 0.0558735 0.283255 0.957416 
0.046092 0.249853 0.967186 0.0417434 0.225555 0.973336 0.0471655 0.202881 0.978067 
0.0828943 0.155916 0.984286 0.134771 0.0934285 0.986462 0.203715 -0.00584691 0.979013 
-0.276987 -0.798891 0.533902 -0.360216 -0.833604 0.418746 -0.318073 -0.819727 0.476316 
-0.297408 -0.924387 0.238866 -0.352804 -0.872981 0.336799 -0.242452 -0.958153 0.152186 
0.827568 0.430565 -0.360202 0.807404 0.488861 -0.330323 0.797816 0.509682 -0.322046 
0.789845 0.565646 -0.237044 0.796638 0.527819 -0.294577 -0.147598 -0.989047 -0.000208528 
-0.694814 0.109139 0.71086 -0.627627 -0.00888404 0.778463 -0.634858 -0.0138977 0.772503 
-0.53488 -0.167263 0.828207 -0.474817 -0.23858 0.847129 -0.689007 -0.723952 -0.0341032 
-0.699362 -0.714617 -0.0146735 0.721963 0.690414 -0.0458028 0.711266 0.702826 -0.0116815 
0.736577 0.672858 -0.0686816 -0.66669 -0.742224 -0.0680244 -0.0469835 -0.357394 0.932771 
-0.0347204 -0.350825 0.935797 -0.0167599 -0.342956 0.939202 0.00496561 -0.33473 0.942301 
0.0286134 -0.326877 0.944634 0.0355409 -0.791693 -0.609885 
val 1 164 float
-527.06 -548.961 -361.343 -370.702 -380.896 -390.782 -344.618 -558.897 -465.156 
-565.136 -572.239 -557.671 -541.696 -549.851 -527.172 -491.341 -237.191 -553.582 
-239.834 -231.888 -235.666 -228.508 -225.533 -222.962 -320.569 -303.727 -219.978 
-288.984 -285.439 -256.575 -573.131 -216.635 -217.679 -328.018 -214.786 -215.088 
-215.398 -214.095 -212.497 -262.369 -249.674 -138.369 -147.301 -95.2682 -85.8708 
-95.2523 -308.251 -304.367 -303.271 -291.217 -330.695 -308.179 -314.402 -237.323 
-217.294 -168.647 -137.699 -669.156 -574.471 -555.456 -410.037 -423.797 -412.237 
-451.473 -460.538 -527.815 -502.382 -522.27 -615.498 -627.809 -625.093 -629.39 
-512.577 -630.683 -632.216 -631.633 -528.573 -524.114 -630.299 -632.077 -537.922 
-535.397 -532.663 -214.531 -229.638 -404.975 -624.833 -619.813 -541.695 -539.691 
-540.774 -572.507 -614.753 -616.972 -529.86 -534.9 -531.695 -531.751 -540.673 
-552.431 -535.191 -535.336 -598.86 -597.055 -621.181 -227.435 -212.064 -233.402 
-233.432 -230.347 -229.661 -238.1 -252.246 -270.945 -668.62 -677.471 -681.687 
-274.095 -254.929 -251.925 -286.543 -582.705 -572.644 -562.97 -263.579 -272.519 
-556.282 -561.483 -560.351 -557.308 -551.459 -545.514 -537.382 -532.029 -524.74 
-420.418 -430.11 -427.553 -436.26 -433.114 -439.283 -458.099 -474.057 -488.842 
-512.721 -499.64 -453.244 -355.705 -385.646 -372.739 -382.928 -390.112 -320.84 
-338.222 -370.272 -355.859 -370.745 -281.566 -217.249 -230.964 -243.475 -254.749 
-264.762 -424.935 
hevec2 3 164 float
-0.303386 0.952109 -0.0380137 0.939508 -0.26944 -0.211487 -0.991018 0.0177197 -0.132551 
-0.989384 -0.035335 -0.140961 -0.976701 -0.131805 -0.169361 -0.938796 -0.260109 -0.225842 
-0.992024 0.0518186 -0.114903 -0.93653 0.295079 0.189316 -0.225681 0.951335 -0.209832 
-0.955837 0.21459 0.200815 -0.952464 0.237031 0.191384 -0.958574 0.189627 0.212551 
-0.958544 0.13381 0.251571 -0.959827 0.162915 0.228452 -0.949753 0.07834 0.303038 
-0.95182 0.0715454 0.298194 -0.98131 0.00214721 0.192423 -0.217076 -0.334494 0.917056 
-0.980993 0.0400651 0.18986 -0.981473 0.0906197 0.168818 -0.981247 0.0636771 0.181932 
-0.981085 0.122052 0.15025 -0.979294 0.158054 0.126502 -0.97521 0.198068 0.098659 
0.79764 -0.00495125 -0.603114 0.7873 -0.0108579 -0.616474 -0.964186 0.259481 0.0549047 
0.785176 -0.0129448 -0.619137 0.775987 -0.00506957 -0.630729 0.751845 0.07063 -0.655546 
-0.0539887 0.498314 -0.865314 -0.932968 0.35946 -0.0189543 -0.946251 0.323329 0.00822413 
-0.434862 0.870573 0.230213 -0.910574 0.40632 -0.0758886 -0.913341 0.401453 -0.0681475 
-0.916285 0.396258 -0.0583193 -0.903473 0.420126 -0.0850404 -0.891846 0.444137 -0.0857541 
0.167347 0.866068 -0.471085 0.209634 0.853882 -0.476382 0.20473 -0.735155 -0.646245 
0.197267 -0.716681 -0.668921 0.875267 -0.250529 -0.413693 0.981923 0.0443758 -0.184004 
0.969313 -0.0506665 -0.240553 0.387304 -0.918136 -0.0837927 0.474521 -0.879697 -0.0310287 
0.327308 -0.935301 -0.134464 0.283041 -0.93938 -0.193527 0.993883 0.110411 -0.0023428 
0.993776 0.109713 -0.0192761 0.996202 0.0867839 -0.00705019 0.879952 -0.0733169 -0.469371 
0.868211 -0.0709648 -0.491095 0.842998 -0.0860536 -0.530989 0.823504 -0.0944701 -0.559389 
0.394271 -0.566058 -0.723968 0.925829 0.281592 0.252084 0.864912 0.432519 -0.254666 
-0.615715 0.132695 -0.776715 -0.709555 0.0903032 -0.698839 -0.682448 0.106808 -0.723088 
0.783854 -0.0318604 0.620127 0.978009 0.177624 0.109306 0.402073 0.498089 -0.768274 
-0.638477 0.607818 0.472128 0.47963 0.573953 -0.663726 -0.395013 -0.801157 0.449569 
-0.452228 -0.790657 0.412736 -0.413741 -0.800484 0.433641 -0.4903 -0.779839 0.389175 
-0.335298 -0.940696 0.0516305 -0.525826 -0.769891 0.361628 -0.581876 -0.755476 0.301125 
-0.557689 -0.761245 0.330891 -0.319155 -0.947629 -0.0117991 -0.333705 -0.942534 0.0164261 
-0.615217 -0.745757 0.255647 -0.626653 -0.745577 0.22676 -0.293424 -0.953827 -0.0641584 
-0.300984 -0.952352 -0.0493319 -0.307716 -0.95087 -0.034018 0.673956 -0.47849 0.562877 
0.684927 -0.446938 0.575432 0.0990596 0.329928 0.938794 -0.662422 -0.735078 0.144421 
-0.679537 -0.727319 0.0961027 -0.269558 -0.958352 -0.0943421 -0.287231 -0.954785 -0.0767056 
-0.279353 -0.956249 -0.0868911 -0.0725617 -0.94229 -0.326839 -0.696598 -0.715395 0.0544108 
-0.686307 -0.723578 0.0736132 0.235821 0.963755 0.124756 0.210225 0.969705 0.12441 
-0.25731 -0.958817 -0.120254 -0.990854 -0.0613886 -0.120166 -0.988252 -0.151747 -0.018213 
0.165124 0.969817 0.179412 0.166399 0.974315 0.151731 0.186718 0.973024 0.1355 
0.595096 0.774853 0.213221 0.59584 0.763275 0.249772 0.622454 0.765703 0.162018 
-0.164412 -0.95129 -0.260799 -0.225187 -0.935311 -0.272918 -0.0724802 -0.969898 -0.232476 
0.0354712 -0.980668 -0.192436 0.562371 -0.824171 0.0669361 0.379672 -0.924457 -0.0350626 
-0.666778 0.734158 -0.128138 -0.730607 0.663398 -0.161603 -0.779994 0.599629 -0.179035 
-0.759622 0.227928 -0.609117 0.854243 -0.187066 0.485051 0.911391 -0.15881 0.379665 
0.698446 -0.535819 -0.474417 0.830397 -0.548311 0.098975 0.82685 -0.561924 -0.0236556 
-0.8052 0.568611 -0.168328 -0.885813 -0.328857 0.327397 -0.901136 -0.311682 0.301343 
-0.914734 -0.297427 0.273492 -0.866008 0.407678 -0.289532 -0.851032 0.450431 -0.26992 
0.303116 -0.912536 0.274588 0.312423 -0.919229 0.239605 0.306201 -0.917567 0.253596 
0.285815 -0.931036 0.226893 0.245555 -0.946621 0.208833 0.2132 -0.958638 0.18857 
0.161867 -0.976676 0.141078 0.132439 -0.988311 0.0755096 -0.360269 -0.930263 0.0694099 
-0.026756 -0.549014 -0.835385 -0.105904 -0.409436 -0.906172 -0.0534365 -0.486108 -0.872263 
-0.215451 -0.178754 -0.960014 -0.166261 -0.29573 -0.940692 -0.248379 -0.0903347 -0.964441 
0.0337791 0.602296 0.797558 -0.0240618 0.586689 0.809455 -0.06543 0.604203 0.79414 
-0.101384 0.501605 0.859136 -0.0915473 0.587076 0.804339 0.273851 -0.0406648 -0.960912 
-0.701114 -0.323001 -0.635696 -0.724398 -0.359633 -0.588142 -0.711053 -0.380631 -0.591205 
-0.715372 -0.431943 -0.549243 -0.722183 -0.444502 -0.529971 0.72454 -0.689186 -0.00808077 
0.714384 -0.699511 0.0184379 -0.691837 0.719189 -0.0642473 -0.702548 0.710246 -0.0444683 
-0.676353 0.73295 -0.073017 0.745318 -0.663283 -0.0674957 -0.894547 0.430587 0.119922 
-0.878045 0.457919 0.139093 -0.858648 0.486217 0.162223 -0.834176 0.518283 0.188503 
-0.802617 0.555769 0.216627 -0.495831 0.515892 -0.698575 
h0 1 164 float
5.67002 -32.8342 -142.608 -125.655 -100.777 -71.0583 -141.524 30.1994 247.023 
46.3287 44.1299 46.5897 44.6096 45.8219 40.9255 36.5673 -40.6821 97.0636 
-42.642 -45.6681 -44.4193 -46.4878 -46.8799 -46.7941 -57.9044 -89.3721 -46.017 
-115.416 -141.043 -186.39 16.1315 -29.915 -39.3693 54.933 19.3957 9.30082 
-0.807326 40.3371 72.4449 52.0202 42.7527 48.4579 33.0299 -79.912 -131.631 
-109.077 174.998 225.019 145.206 109.712 186.954 196.241 138.15 84.1197 
57.3735 49.6493 10.6037 3.77787 -46.8745 30.4866 2.9597 25.9151 10.7459 
50.3725 52.562 -13.7748 85.1397 -27.1018 7.11835 26.6328 16.7614 35.2012 
-3.32877 41.2531 45.8054 44.5623 13.5399 5.50024 45.0468 42.0698 22.2729 
21.5535 19.2556 7.54838 14.0792 51.5111 31.4845 23.9309 10.7867 20.5617 
16.5941 4.01647 17.3629 19.9995 -13.0932 -12.8277 -4.32917 -21.2175 -9.52795 
4.27647 -4.69421 -11.0833 -6.86643 -42.624 4.90003 84.4878 124.903 30.0184 
-16.6384 -155.961 -111.529 -199.913 -244.318 -282.008 -13.8749 -1.99165 6.57083 
-174.204 -296.242 -264.632 -304.452 122.835 125.123 120.419 -216.379 -283.157 
19.012 25.659 25.8892 24.3843 15.1963 1.14291 -21.8049 -36.5463 -46.5691 
-82.9706 -52.5266 -68.3571 10.5371 -26.7645 57.4875 55.7183 77.8448 91.1823 
98.8406 98.2942 222.21 91.0745 129.869 118.336 122.961 106.075 424.605 
428.519 375.075 413.768 340.357 375.647 125.335 136.095 145.525 153.108 
157.803 87.1396 
h1 1 164 float
-111.924 -123.272 -291.85 -291.194 -289.933 -286.53 -304.054 -168.835 -105.486 
-173.598 -170.622 -178.699 -193.569 -185.562 -210.661 -227.117 -429.339 -102.019 
-425.593 -418.383 -422.211 -414.524 -411.117 -408.585 -388.068 -405.93 -407.495 
-418.839 -430.727 -463.537 -103.191 -420.04 -412.169 -179.266 -453.812 -446.542 
-439.458 -469.389 -492.438 -256.145 -258.557 -544.126 -538.058 -531.405 -456.724 
-498.091 -197.756 -211.198 -200.334 -213.771 -186.977 -187.603 -168.365 -293.352 
-270.402 -345.091 -323.057 -93.4319 -187.504 -108.492 -181.349 -202.18 -191.701 
-216.389 -224.534 -113.694 -94.8971 -128.776 -116.5 -109.926 -112.093 -107.909 
-149.555 -106.373 -104.805 -105.585 -139.466 -143.597 -104.892 -105.186 -132.727 
-134.42 -136.102 -429.808 -429.999 -137.266 -107.686 -109.729 -131.271 -131.84 
-131.362 -95.5549 -112.872 -111.267 -135.322 -135.751 -132.779 -164.944 -150.225 
-139.299 -142.178 -138.887 -103.498 -112.415 -98.3435 -536.909 -529.276 -548.635 
-556.09 -556.12 -562.254 -542.854 -523.81 -497.529 -102.87 -98.7702 -94.0061 
-490.419 -473.448 -484.605 -472.856 -118.756 -114.175 -111.641 -440.982 -426.778 
-109.086 -103.393 -104.411 -103.753 -106.938 -112.442 -123.679 -134.15 -147.856 
-178.031 -150.334 -164.316 -122.47 -136.068 -111.055 -126.553 -117.816 -112.687 
-120.677 -112.283 -105.532 -149.1 -102.69 -118.696 -109.294 -119.025 -104.066 
-102.662 -105.362 -103.118 -109.063 -108.557 -122.444 -126.099 -131.023 -137.557 
-145.601 -129.795 
h2 1 164 float
-258.468 -214.78 -373.71 -360.968 -347.971 -337.551 -392.805 -377.896 -276.532 
-317.25 -317.655 -319.082 -322.579 -321.352 -331.051 -380.615 -541.946 -200.512 
-551.985 -562.424 -559.368 -563.036 -562.897 -562.786 -621.349 -643.996 -563.226 
-660.274 -661.127 -676.217 -243.624 -567.025 -564.945 -438.96 -575.854 -574.185 
-572.325 -577.53 -575.393 -551.425 -586.33 -650.337 -632.908 -589.038 -597.131 
-592.266 -354.454 -355.097 -368.952 -402.637 -522.414 -539.25 -539.199 -684.809 
-702.489 -773.435 -796.886 -159.853 -223.13 -205.229 -293.154 -290.233 -302.734 
-248.709 -252.26 -253.086 -149.319 -254.273 -215.228 -191.357 -197.337 -187.791 
-286.528 -185.066 -182.516 -183.579 -277.925 -277.303 -186.944 -183.861 -278.556 
-278.472 -278.237 -526.608 -526.594 -240.86 -199.072 -208.434 -280.235 -278.881 
-279.641 -230.001 -216.128 -213.76 -298.812 -294.846 -295.717 -193.682 -197.846 
-281.251 -301.272 -297.332 -198.393 -193.451 -144.543 -651.911 -669.192 -640.546 
-634.095 -622.315 -622.199 -626.117 -629.777 -628.547 -151.482 -140.058 -138.689 
-582.13 -619.543 -603.758 -622.235 -326.365 -338.823 -352.694 -618.084 -624.086 
-166.742 -149.771 -156.411 -147.843 -146.651 -144.579 -143.993 -144.774 -148.486 
-262.62 -218.139 -236.315 -184.376 -200.648 -170.339 -220.128 -199.15 -175.226 
-172.463 -165.867 -155.622 -383.901 -322.608 -359.915 -351.502 -337.167 -222.182 
-222.774 -228.732 -226.119 -261.165 -224.875 -446.572 -434.766 -422.008 -408.724 
-396.264 -229.77 
hess 9 164 float
-1.8119 2.3668 -1.95767 2.3668 -8.74498 -0.35799 -1.95767 -0.35799 -2.82713 
-6.68913 1.33832 0.426499 1.33832 -1.70703 -1.01329 0.426499 -1.01329 -3.98332 
-10.2669 0.17192 -0.82865 0.17192 -7.86981 -0.949683 -0.82865 -0.949683 -4.31239 
-9.92187 0.133166 -0.770569 0.133166 -7.4613 -1.5778 -0.770569 -1.5778 -4.22287 
-9.5507 0.0116292 -0.6731 0.0116292 -6.90715 -2.21402 -0.6731 -2.21402 -4.06103 
-9.27436 -0.187795 -0.548356 -0.187795 -6.30652 -2.84936 -0.548356 -2.84936 -3.89718 
-10.8115 0.135304 -0.800616 0.135304 -8.45135 -0.0587934 -0.800616 -0.0587934 -4.02562 
-12.1078 2.92247 3.21678 2.92247 -5.69231 2.009 3.21678 2.009 -0.896989 
6.15062 3.60631 1.01299 3.60631 -6.95978 1.33428 1.01299 1.33428 -3.14972 
-7.98404 1.62848 2.20303 1.62848 -3.64967 2.23425 2.20303 2.23425 -0.714014 
-7.96721 1.6902 2.16936 1.6902 -3.73323 2.10699 2.16936 2.10699 -0.636956 
-8.05558 1.57489 2.23799 1.57489 -3.57768 2.38689 2.23799 2.38689 -0.899811 
-8.14033 1.49649 2.32921 1.49649 -3.40978 2.74955 2.32921 2.74955 -1.54818 
-8.12439 1.52975 2.27893 1.52975 -3.50551 2.56131 2.27893 2.56131 -1.17821 
-8.31982 1.47182 2.44852 1.47182 -3.28683 3.0784 2.44852 3.0784 -2.34435 
-12.3892 2.01053 3.43618 2.01053 -4.38757 4.20317 3.43618 4.20317 -3.65714 
-15.3282 -0.13928 2.76044 -0.13928 -12.5208 -0.747659 2.76044 -0.747659 -1.78326 
2.68757 0.400867 2.4435 0.400867 -3.8901 1.2356 2.4435 1.2356 -5.98841 
-14.8308 -0.0122544 2.59704 -0.0122544 -11.7666 -0.815888 2.59704 -0.815888 -1.74201 
-15.2064 0.215344 2.30571 0.215344 -11.5814 -0.917486 2.30571 -0.917486 -1.72542 
-15.0687 0.0901304 2.49943 0.0901304 -11.6768 -0.865331 2.49943 -0.865331 -1.75446 
-15.2858 0.364271 2.01641 0.364271 -11.4917 -0.991083 2.01641 -0.991083 -1.66831 
-15.3382 0.53755 1.63441 0.53755 -11.4195 -1.10689 1.63441 -1.10689 -1.60055 
-15.3658 0.735591 1.16412 0.735591 -11.371 -1.28531 1.16412 -1.28531 -1.54562 
-19.4595 3.62362 6.23132 3.62362 -6.10848 4.6439 6.23132 4.6439 -15.9906 
-20.3167 3.62904 6.29498 3.62904 -7.10191 4.31421 6.29498 4.31421 -17.3325 
-15.3394 1.0624 0.348719 1.0624 -11.3411 -1.6841 0.348719 -1.6841 -1.56219 
-21.2003 3.56949 6.37591 3.56949 -8.06851 4.14585 6.37591 4.14585 -18.2876 
-20.599 3.32599 6.05216 3.32599 -8.90325 3.95825 6.05216 3.95825 -18.1258 
-21.8396 2.68466 6.15183 2.68466 -11.629 4.72988 6.15183 4.72988 -19.3862 
-2.55322 1.73009 0.625617 1.73009 -2.40176 3.40082 0.625617 3.40082 -6.57524 
-15.0467 1.75425 -1.38257 1.75425 -11.3482 -2.85568 -1.38257 -2.85568 -1.85455 
-15.1979 1.46591 -0.673051 1.46591 -11.3437 -2.32581 -0.673051 -2.32581 -1.69412 
-1.35243 6.2037 0.692221 6.2037 -10.5768 -1.74981 0.692221 -1.74981 -6.21373 
-14.5842 2.57539 -3.15066 2.57539 -11.0692 -4.5232 -3.15066 -4.5232 -2.4097 
-14.6663 2.43172 -2.8742 2.43172 -11.1338 -4.22118 -2.8742 -4.22118 -2.2951 