# vtk DataFile Version 4.0
vtk output
ASCII
DATASET POLYDATA
FIELD FieldData 7
irad 1 1 float
0.8 
srad 1 1 float
4 
spacing 3 1 float
0.625413 0.625413 0.625282 
liveth 1 1 float
-90 
seedth 1 1 float
-70 
AV_classification_dnn_model_name 1 1 string
Model_v03_all_points.hdf5

vessel_sizing_dnn_model_name 1 1 string
Model_v01_df93962_best.hdf5

POINTS 3525 float
-20.4887 -88.1462 -206.891 -33.2821 -66.7214 -203.304 -37.6196 -64.2529 -201.249 
-36.9982 -68.2947 -199.946 -36.7256 -68.0818 -200.315 -37.0047 -66.016 -200.529 
-37.1519 -65.505 -200.717 -37.3072 -65.0062 -200.938 -67.7173 -200.29 -198.999 
-22.6841 -72.3346 -199.236 -43.0553 -68.7937 -198.617 -43.4592 -68.4578 -198.755 
-37.2451 -68.5504 -199.597 -37.739 -69.2142 -198.874 -43.8568 -68.0708 -198.885 
-41.8037 -69.6185 -198.152 -41.3654 -69.8697 -197.961 -40.9147 -70.1234 -197.742 
-40.3525 -70.552 -197.474 -38.1858 -69.7638 -198.236 -42.2674 -69.3463 -198.33 
-42.6669 -69.0838 -198.48 -61.9776 -61.7068 -198.185 -52.0707 -59.94 -197.162 
-22.1847 -84.3351 -193.022 -31.7162 -89.9103 -192.465 -22.3339 -84.921 -191.966 
-30.8206 -88.3205 -190.58 -30.6205 -88.7638 -190.376 -22.6701 -85.72 -190.252 
-22.5936 -85.5139 -190.677 -22.4968 -85.2863 -191.164 -37.2934 -196.606 -189.688 
-37.6971 -196.56 -189.307 -30.302 -90.2109 -189.224 -30.5154 -89.1963 -190.09 
-30.3783 -89.7968 -189.592 -22.7377 -85.9334 -189.828 -22.8028 -86.1724 -189.354 
-55.3519 -70.5549 -189.184 -38.241 -196.411 -188.811 -30.2409 -90.5745 -188.891 
-22.9289 -86.7644 -188.152 -22.889 -86.5493 -188.616 -50.9855 -78.1638 -187.91 
-50.5459 -77.7577 -187.819 -50.1297 -77.3954 -187.749 -47.2066 -74.3421 -187.819 
-56.3441 -72.0975 -188.277 -55.8953 -71.4752 -188.786 -29.2752 -101.343 -186.771 
-29.7721 -92.717 -186.602 -21.4086 -89.1902 -187.061 -21.8506 -88.7524 -186.822 
-25.796 -87.3519 -186.522 -23.1071 -87.2015 -186.797 -22.9959 -87.0931 -187.308 
-44.6486 -75.9581 -186.792 -45.1744 -75.6497 -186.921 -57.3892 -74.3097 -186.989 
-46.5216 -74.8242 -187.385 -45.4939 -75.4686 -187.014 -57.1174 -73.7791 -186.93 
-77.3091 -185.802 -185.889 -77.2778 -186.233 -186.254 -77.3852 -185.348 -185.571 
-29.4311 -100.786 -186.065 -29.2793 -93.9766 -185.636 -70.0145 -92.6373 -185.925 
-29.6286 -93.1094 -186.213 -29.4647 -93.5267 -185.901 -69.1702 -92.1812 -185.498 
-29.0799 -90.9218 -186.15 -26.1775 -87.3349 -185.575 -23.3521 -87.1601 -186.343 
-82.3327 -85.6143 -185.898 -82.1499 -86.055 -185.606 -82.5158 -85.1681 -186.207 
-43.3412 -78.2563 -185.551 -43.487 -77.5993 -185.945 -43.6376 -77.0299 -186.322 
-54.4689 -65.0575 -186.422 -12.8961 -113.528 -184.638 -13.8871 -113.531 -184.197 
-13.3895 -113.492 -184.393 -55.4703 -104.752 -184.352 -27.7949 -96.7583 -184.314 
-28.1742 -96.1141 -184.615 -28.6039 -95.3558 -184.967 -28.3254 -95.852 -184.737 
-28.925 -94.736 -185.253 -68.3193 -91.6894 -185.107 -68.7514 -91.9313 -185.295 
-67.8625 -91.4874 -184.941 -67.4042 -91.2657 -184.768 -66.9945 -90.9267 -184.6 
-78.7531 -89.0406 -184.751 -67.2142 -87.8792 -184.693 -66.7866 -88.4933 -184.563 
-25.2407 -86.6657 -184.205 -24.8256 -86.7534 -184.649 -32.8049 -80.6573 -184.674 
-42.9805 -80.2176 -184.393 -43.0814 -79.6693 -184.716 -32.8922 -79.6194 -185.041 
-32.8229 -80.1387 -184.873 -43.1915 -79.048 -185.087 -43.246 -78.7633 -185.253 
-27.0091 -68.6852 -184.326 -26.8768 -69.2333 -184.163 -27.2738 -67.6679 -184.726 
-27.4224 -67.2192 -184.977 -27.1398 -68.1494 -184.512 -26.4337 -98.9902 -183.137 
-88.7328 -97.4243 -183.363 -89.5207 -97.809 -183.916 -89.1208 -97.6032 -183.618 
-27.0972 -97.9077 -183.74 -26.853 -98.309 -183.523 -27.537 -97.1848 -184.104 
-25.6003 -86.5898 -183.788 -25.9241 -86.5209 -183.366 -31.3926 -85.1281 -183.858 
-42.8705 -80.7682 -184.062 -42.7601 -81.3023 -183.744 -26.6665 -69.9899 -183.987 
-26.4062 -70.5557 -183.966 -25.1291 -100.927 -181.88 -25.4468 -100.492 -182.171 
-25.7862 -99.9961 -182.506 -26.0531 -99.5955 -182.764 -63.4474 -92.0045 -182.731 
-63.0953 -92.3008 -182.318 -25.757 -75.4109 -182.675 -25.7541 -74.9688 -182.894 
-67.7273 -64.1838 -181.71 -87.0741 -108.788 -180.667 -23.1043 -103.487 -180.577 
-23.7895 -102.674 -180.91 -23.4372 -103.076 -180.754 -24.786 -101.398 -181.57 
-24.2898 -102.048 -181.208 -81.3134 -94.1299 -181.493 -62.5558 -92.7872 -181.629 
-42.0414 -87.4581 -180.719 -42.2185 -86.0586 -181.46 -27.5866 -83.9617 -181.142 
-64.0747 -65.1223 -181.169 -63.5802 -65.2845 -180.972 -63.092 -65.4475 -180.762 
-62.5924 -65.5966 -180.57 -67.108 -64.2877 -181.589 -59.4337 -184.856 -179.42 
-59.3723 -185.235 -179.728 -59.9778 -183.933 -179.398 -92.2387 -125.813 -179.692 
-91.4661 -125.535 -179.733 -90.9425 -125.376 -179.73 -86.3516 -108.564 -180.364 
-22.5427 -105.279 -179.465 -22.6402 -104.596 -179.914 -22.85 -103.909 -180.352 
-36.658 -99.1125 -179.319 -41.5143 -88.9066 -179.717 -41.8424 -88.0656 -180.276 
-41.9255 -87.835 -180.443 -41.6793 -88.4812 -180.002 -44.2421 -188.404 -178.765 
-44.405 -187.8 -178.262 -59.4617 -184.461 -179.095 -58.2446 -184.737 -178.522 
-59.4527 -184.056 -178.768 -59.3308 -183.246 -178.147 -59.4068 -183.656 -178.455 
-22.3273 -107.211 -178.215 -22.4892 -105.744 -179.164 -22.3734 -106.802 -178.481 
-22.439 -106.202 -178.872 -56.6352 -104.088 -178.627 -56.7008 -103.671 -178.142 
-75.5334 -94.8178 -178.285 -41.0838 -90.7889 -178.409 -41.1965 -90.0271 -178.959 
-41.2985 -89.579 -179.268 -44.6206 -186.993 -177.593 -44.5132 -187.393 -177.918 
-44.7383 -186.594 -177.28 -44.9035 -186.089 -176.918 -58.2208 -183.176 -177.59 
-59.2367 -182.845 -177.861 -59.1278 -182.441 -177.582 -58.7461 -182.056 -177.281 
-58.7974 -181.624 -177.051 -38.4427 -133.021 -177.594 -87.9245 -124.73 -177.554 
-87.4381 -124.578 -177.132 -37.0311 -121.307 -177.015 -22.2451 -114.235 -177.689 
-22.1382 -108.479 -177.376 -22.0364 -108.991 -177.037 -82.341 -107.76 -177.296 
-22.2292 -107.939 -177.733 -11.3371 -105.457 -178.046 -56.7285 -103.255 -177.755 
-56.6914 -102.436 -177.235 -74.5812 -94.951 -177.525 -75.0752 -94.8808 -177.929 
-74.1125 -95.0259 -177.126 -62.7058 -94.9319 -177.355 -62.2548 -95.2212 -177.205 
-61.7858 -95.4799 -177.056 -61.3144 -95.7299 -176.902 -41.038 -91.3408 -177.999 
-41.0181 -91.7178 -177.704 -41.0007 -92.2266 -177.287 -33.3583 -91.2714 -176.949 
-32.9776 -90.9478 -177.071 -32.1686 -90.3451 -177.191 -32.573 -90.6348 -177.145 
-31.4896 -89.9236 -177.102 -31.2279 -89.7229 -177.277 -30.6593 -89.4546 -177.001 
-45.0654 -185.634 -176.566 -45.366 -184.766 -175.841 -45.253 -185.112 -176.148 
-59.5029 -181.064 -176.595 -58.8512 -181.154 -176.81 -58.8356 -180.695 -176.593 
-58.7882 -179.748 -176.129 -58.8534 -180.242 -176.369 -58.7473 -179.317 -175.798 
-71.5647 -174.56 -176.346 -70.3629 -173.719 -175.692 -80.0252 -163.669 -175.836 
-87.0036 -124.436 -176.814 -86.536 -124.305 -176.543 -38.1683 -121.748 -175.862 
-37.46 -121.456 -176.684 -37.8091 -121.598 -176.278 -21.4118 -110.902 -175.863 
-21.5899 -110.481 -176.111 -21.9382 -109.391 -176.781 -21.8347 -109.788 -176.524 
-82.1551 -107.488 -176.827 -13.0455 -103.666 -176.331 -13.3107 -103.593 -175.87 
-56.7009 -101.496 -176.659 -46.0932 -98.0158 -176.816 -45.5004 -98.1605 -176.549 
-44.5651 -98.3784 -176.22 -45.0359 -98.2775 -176.364 -44.0346 -98.4124 -175.958 
-60.281 -96.3131 -176.524 -59.634 -96.6356 -176.094 -73.7319 -95.0948 -176.822 
-73.0029 -95.2427 -176.254 -72.3154 -95.417 -175.866 -60.9073 -95.96 -176.763 
-40.9739 -92.8801 -176.723 -40.5668 -93.4223 -175.994 -34.7547 -92.5666 -176.069 
-35.0536 -92.8699 -175.778 -34.4344 -92.2578 -176.335 -33.7369 -91.6056 -176.787 
-34.1004 -91.936 -176.574 -45.4123 -184.352 -175.277 -45.689 -183.735 -174.946 
-59.7932 -180.241 -175.482 -59.3975 -179.477 -174.786 -59.6183 -179.88 -175.109 
-58.7788 -179.044 -175.343 -69.9777 -173.476 -175.447 -68.3991 -172.593 -174.73 
-68.8906 -127.46 -174.979 -66.4278 -127.622 -175.312 -66.9794 -127.565 -175.278 
-68.2455 -127.421 -175.032 -67.6521 -127.44 -175.115 -38.7314 -121.995 -175.25 
-21.1267 -112.141 -174.85 -67.3273 -110.863 -174.578 -67.7762 -110.667 -174.845 
-21.2063 -111.465 -175.51 -21.1455 -111.736 -175.294 -68.5741 -110.289 -175.521 
-68.1797 -110.479 -175.178 -13.7021 -103.432 -175.454 -13.3646 -103.613 -174.548 
-39.4478 -101.226 -174.49 -39.0943 -101.657 -174.47 -57.6893 -97.6606 -174.876 
-58.143 -97.4027 -175.143 -57.2244 -97.9137 -174.609 -41.2129 -98.1307 -174.717 
-58.897 -96.9788 -175.594 -58.516 -97.1902 -175.363 -71.0151 -95.7998 -175.435 
-71.7225 -95.5948 -175.639 -40.1654 -95.4262 -174.716 -40.153 -94.9249 -174.975 
-40.1945 -94.4342 -175.204 -40.2852 -93.9765 -175.435 -35.8681 -93.6604 -174.704 
-35.6122 -93.4374 -175.108 -35.3378 -93.1646 -175.455 -45.3977 -183.598 -174.125 
-45.3673 -183.194 -173.528 -60.5192 -179.981 -174.459 -58.7632 -178.342 -173.713 
-58.9678 -178.713 -174.097 -59.1786 -179.088 -174.443 -64.1612 -126.389 -173.785 
-64.5019 -126.788 -174.168 -63.7692 -126.213 -173.554 -40.397 -122.824 -173.717 
-21.2451 -112.922 -173.837 -66.8354 -111.087 -174.358 -33.6639 -107.552 -173.432 
-34.0194 -107.221 -173.535 -35.3415 -105.961 -173.898 -34.9664 -106.322 -173.795 
-34.3819 -106.878 -173.634 -36.0957 -105.209 -174.103 -36.4899 -104.794 -174.199 
-35.7091 -105.597 -173.999 -37.4492 -103.709 -174.355 -36.8689 -104.379 -174.273 
-13.391 -103.491 -173.526 -13.3824 -103.549 -174.034 -38.7178 -102.124 -174.446 
-38.3522 -102.581 -174.423 -37.8741 -102.991 -173.35 -37.9825 -103.05 -174.396 
-55.3116 -98.7672 -173.63 -55.7321 -98.6065 -173.821 -54.8925 -98.9096 -173.437 
-56.4374 -98.3015 -174.177 -56.8384 -98.1183 -174.384 -40.3019 -96.0956 -174.019 
-36.3072 -93.8672 -173.685 -36.1263 -93.8084 -174.236 -67.4401 -90.1691 -173.886 
-68.7387 -89.1089 -173.714 -68.2933 -89.4458 -173.743 -67.8607 -89.8005 -173.793 
-70.3335 -87.8834 -173.621 -69.8867 -88.253 -173.664 -69.1861 -88.7777 -173.694 
-70.6876 -87.4399 -173.437 -61.5112 -76.6132 -173.853 -45.2343 -182.303 -172.238 
-45.3247 -182.78 -172.943 -58.4678 -177.831 -173.136 -58.2395 -177.479 -172.734 
[...]
POINT_DATA 3525
SCALARS scale float
LOOKUP_TABLE default
3.15962 2.25141 2.15651 2.29994 2.25546 2.15497 2.15843 2.1997 2.21032 
2.61068 2.64242 2.53028 2.28556 2.48499 2.33087 2.80075 2.74658 2.60406 
2.19346 2.45306 2.75502 2.70231 2.16449 2.23892 2.64096 2.16085 2.46497 
2.55044 2.66155 2.47592 2.45231 2.39609 3.10364 3.08125 2.3099 2.55037 
2.43995 2.482 2.45121 3.65311 2.96105 2.21276 2.2127 2.25076 2.46033 
2.50701 2.38867 2.23122 3.70437 3.79364 3.85238 2.21946 2.35005 2.2887 
5.22021 2.33174 2.26668 2.30995 2.40762 2.54873 2.63758 2.49291 2.37275 
2.27451 2.42722 2.20363 3.80246 2.34957 2.28885 2.37765 2.40624 2.53483 
5.47355 4.97574 2.25937 2.29656 2.34859 2.16716 2.24344 2.2913 2.34831 
2.21593 2.35707 2.28075 2.34249 2.91345 2.38386 2.30382 2.19181 2.29521 
2.18292 2.51486 2.54944 2.42038 2.29567 2.27372 2.44517 2.17453 2.18027 
2.28151 2.21904 2.28462 2.22993 2.21706 2.21141 2.27728 2.2191 2.24402 
3.19138 3.00979 3.31521 3.28272 3.31424 2.39162 2.20996 2.17559 2.22565 
2.43166 2.43686 2.40836 2.27057 2.19608 3.27697 2.21438 2.17423 2.67373 
2.18976 2.32191 2.29712 2.32322 2.3543 3.98871 4.38267 2.16903 2.2621 
2.51735 2.24445 2.84924 2.51214 2.71551 2.30902 2.39953 2.17784 4.83941 
2.78999 2.54417 2.57334 2.23077 2.28843 2.35867 2.36802 2.17383 4.30681 
4.41996 4.98783 2.31584 2.24996 2.19152 2.20239 2.84634 2.92455 2.9309 
2.99271 2.84708 2.68529 2.69422 2.78539 2.15449 2.30578 4.17629 2.1811 
4.03968 3.76798 3.90412 2.79741 2.84512 2.82391 2.83897 2.70505 2.86851 
2.30673 2.87839 2.88208 2.89436 2.58553 2.49058 2.68222 2.62094 2.38059 
3.63861 3.50924 3.11312 3.14965 2.16969 2.26916 2.29045 3.2158 2.72342 
2.73103 2.69112 2.23119 2.759 2.24864 3.07645 3.623 2.55755 2.44024 
2.6693 2.76585 2.7018 2.69154 2.67953 2.8173 2.79195 2.77577 2.79287 
2.79654 2.79805 2.8024 2.49971 2.69151 2.20205 2.81233 2.94691 2.91133 
3.68042 3.18206 3.14123 3.07466 3.16177 3.03311 2.3748 2.2579 2.16994 
2.21573 2.2047 3.3461 3.46451 3.45459 2.6723 2.61895 2.6683 2.60279 
2.36804 2.32846 2.46729 3.78616 2.36801 2.26168 2.31413 2.25773 2.74928 
2.41199 2.85012 2.68315 2.68976 2.49651 2.6092 2.90363 4.67632 2.90064 
2.91427 2.85301 2.79783 2.83828 3.23204 2.6955 4.90366 4.32578 4.67925 
3.11764 2.15983 2.20066 2.75128 2.15985 2.35132 2.76206 2.6796 3.16429 
2.70924 2.66436 2.68213 2.66152 2.63273 2.68484 2.6845 2.28778 3.51778 
2.68792 2.7625 3.62022 3.61245 3.6041 2.2397 3.42826 3.54906 2.16851 
2.28784 6 6 6 5.97397 2.81746 2.87244 2.91472 3.59609 
3.66488 3.63774 3.87187 4.00701 4.13575 2.8539 2.24077 2.92138 2.49114 
2.95464 2.48987 2.63129 2.70451 2.79391 2.80289 2.77673 2.75756 2.75375 
2.78045 2.74843 2.75368 3.86991 3.69657 2.81291 2.81929 4.39689 2.80905 
3.10148 3.21177 3.12287 3.44585 3.45781 6 2.48062 2.72869 2.50357 
2.80235 2.74546 2.65636 2.69388 2.80455 2.82298 2.18399 2.29172 3.60715 
3.64835 3.73866 3.67354 3.7177 2.88801 2.93902 2.94226 2.88285 2.46996 
2.74637 2.33845 3.25568 3.40246 2.15383 2.21309 2.16755 2.4797 2.27081 
3.98234 4.07499 4.83238 2.60688 2.54094 2.57157 2.61623 2.55325 2.85695 
2.81703 2.68865 2.65318 2.5925 2.58899 2.43607 2.43263 2.46869 3.52589 
3.55275 3.20129 3.54441 3.52723 3.5516 3.02763 2.98962 3.02114 4.06532 
3.84584 4.12573 4.08973 4.11117 3.22549 3.85454 3.18435 4.82454 2.66 
2.71008 3.01654 3.62451 3.48731 5.25608 2.77675 3.55288 3.55308 3.03734 
2.97731 4.25863 4.64209 4.04167 3.78164 5.83947 3.64038 2.28629 2.37303 
2.15762 3.07466 2.30635 3.78782 3.73628 6 6 6 2.22701 
2.15774 3.37012 2.90893 2.43109 2.35488 2.19488 3.66848 3.47497 3.47 
3.55997 2.52321 2.22511 2.17315 2.22149 2.25816 2.5819 2.65929 3.84171 
3.80202 3.67218 6 6 2.27581 2.23706 2.32583 3.3459 3.4503 
4.39494 2.51617 2.40097 2.20681 3.10045 3.06769 3.54988 3.0849 3.80679 
3.8707 3.08486 2.25185 2.33037 3.42455 3.42626 3.42453 3.42443 3.43986 
3.77865 2.19074 3.09887 2.86305 2.49197 2.31105 2.61408 2.75508 2.8634 
2.93657 2.63391 2.19954 2.76491 3.33266 2.56467 5.99133 5.28695 2.49222 
2.5306 2.73524 2.92222 2.78237 3.06859 3.12378 2.55232 2.33653 2.88682 
2.2282 2.84002 2.94542 2.90242 2.68362 2.54834 2.21433 2.22808 4.62769 
3.90642 3.58686 2.15654 2.25851 2.62402 2.44232 2.48831 5.84388 2.54294 
2.60749 2.42724 2.30068 2.32342 3.61669 2.32994 2.26081 3.84231 4.25856 
5.34539 2.33737 2.58994 2.60346 2.18929 3.26288 2.18289 2.80981 2.24452 
2.2413 2.99418 6 2.47585 2.53144 2.56242 2.45577 2.48084 2.84622 
2.75143 2.85637 3.81995 3.01109 2.21339 2.31325 2.21978 2.19913 2.18099 
3.66242 2.664 3.35765 3.45023 4.91556 2.69892 2.28526 2.33667 2.22776 
2.21213 2.25357 2.30514 2.54091 2.50888 2.55572 2.34169 6 6 
6 2.2225 2.39072 2.3609 2.27954 2.25325 2.27778 2.38688 2.29585 
2.2041 2.2592 2.26548 2.5122 2.40348 2.63033 2.71466 2.4921 2.50305 
2.35179 2.39739 2.50873 3.52196 4.16946 3.25014 4.47048 3.00704 2.62117 
2.29028 2.23519 2.15436 2.39149 2.33929 2.41477 2.17026 2.21645 3.17596 
3.1816 2.86929 2.98546 3.11454 2.78821 2.75019 2.7651 2.84254 2.78717 
2.80244 2.89289 6 6 2.43974 2.4466 2.47974 2.47651 2.69998 
2.46612 2.24217 4.9147 5.06778 4.8211 5.04565 3.95122 3.80945 4.63598 
4.6433 2.49628 2.24392 2.52257 3.99059 2.17553 2.1795 2.20356 2.15751 
2.4341 2.49851 2.54234 2.58893 2.52221 2.61807 2.6438 2.6696 3.14943 
2.95932 2.72022 3.46661 3.77626 3.6779 3.88552 3.87055 3.63381 3.68302 
3.83278 3.77038 3.42218 6 3.56022 3.25567 3.63139 3.13014 2.76615 
2.8164 2.42334 2.73101 3.49769 2.15718 3.21545 2.17487 2.23475 2.30845 
2.20148 5.0118 5.08783 4.93417 5.00903 4.92819 3.27584 3.58096 2.23663 
2.19851 2.4351 2.16713 3.69192 4.07483 4.63774 4.66965 4.67241 5.35534 
2.15434 2.19457 4.25529 4.20368 2.54835 2.26036 2.35219 2.26624 2.27193 
2.37151 3.59128 3.53977 3.21714 3.48302 3.47177 6 6 5.57202 
4.37078 2.40789 2.21838 2.94936 4.88451 4.74965 4.61234 2.16576 3.78109 
4.15649 3.10475 3.18389 2.99163 3.02521 2.99987 6 6 6 
3.2669 2.1883 2.30972 2.27427 2.33458 4.33564 2.65255 2.6927 2.17355 
2.35266 2.40063 3.64137 2.33367 2.33882 2.42543 2.42929 2.38937 2.38278 
2.23311 2.30638 2.2107 2.65389 2.80319 2.79224 2.73054 2.71225 2.70709 
2.73742 2.66826 2.62619 2.61957 2.94528 2.93766 2.94545 6 5.99945 
4.69873 4.71058 2.32636 2.34953 2.35977 2.18093 2.27791 4.25113 3.63509 
2.16984 2.24061 3.67031 3.45953 2.59463 2.61222 2.66521 2.58359 2.68081 
2.34266 2.69956 2.49459 2.40863 2.62233 2.62712 2.63032 2.62977 2.63752 
2.63888 2.61597 2.60421 2.57646 2.56373 2.56356 2.52751 2.96013 2.97673 
4.62467 4.8969 4.35494 2.80584 2.27519 2.25151 2.2221 2.18124 2.21785 
3.47005 3.45136 2.69779 3.63764 3.67553 2.71099 2.76531 2.84214 2.88891 
4.61915 4.38434 2.62481 2.56442 2.65556 2.68001 2.7375 2.87534 3.18962 
2.91117 2.4642 2.44947 2.43681 2.41929 2.56124 3.99081 3.78475 3.33004 
5.3435 5.29771 2.7112 3.09792 2.16894 3.00555 3.04068 4.45071 4.3834 
2.53367 2.29805 2.33206 2.38036 2.37539 2.33865 3.60631 3.54092 3.46558 
3.34718 3.40876 2.90105 2.89333 4.57407 3.90697 2.93172 4.90172 4.40426 
3.61236 2.97541 2.98742 4.41878 2.97337 2.98335 3.33032 3.11187 3.4841 
3.31601 3.19361 5.56574 5.79876 4.93563 2.40206 2.38763 2.28105 2.35063 
2.31458 2.22296 2.33427 2.43677 2.46856 3.27679 3.1907 3.21207 4.16127 
2.94789 3.4674 2.90067 2.85325 2.81064 2.76365 2.69048 3.46195 3.50146 
2.47353 4.00886 3.73066 2.54208 2.50092 2.49217 2.69524 2.69523 2.84183 
2.15767 2.31023 2.19589 2.40413 2.37765 2.55964 2.45191 2.71346 3.14965 
3.15559 3.22054 3.30141 3.25864 2.52438 2.58953 2.53602 2.55556 2.44385 
2.52644 3.51169 3.65043 3.0957 4.09921 3.93935 2.92485 2.42162 2.53129 
2.17194 2.25753 5.84496 2.9229 3.06682 3.09918 3.10203 3.05552 3.40533 
3.41612 3.47561 3.53841 2.56047 3.74471 4.01066 3.84882 3.72481 2.84521 
3.40627 2.1799 2.50302 2.35172 2.65862 6 2.85091 2.81483 6 
3.03242 2.94061 2.16836 2.44795 2.25607 2.16906 2.38708 3.01538 3.00674 
3.06932 3.04342 3.13917 3.50166 3.49203 3.4821 3.47665 4.15495 4.34295 
2.18295 2.24 4.76126 4.70658 2.43851 2.44161 2.30272 3.05533 2.28851 
2.88845 3.04412 2.17986 2.2304 2.23228 3.25008 3.18167 3.34814 3.44112 
3.57497 3.50036 3.50367 3.54565 3.46867 2.93819 2.77525 2.85747 2.95774 
2.9522 2.93363 2.94613 2.96799 2.97502 2.95681 2.98638 4.50391 4.45783 
3.26744 3.25489 3.27081 3.27712 3.30901 3.71356 3.51139 4.34237 4.36308 
2.4121 2.88941 2.33421 2.64603 2.23814 2.27148 2.27907 2.30488 2.30421 
2.33285 2.33656 2.32798 2.2687 2.21861 2.32586 2.18657 2.21349 2.19769 
3.64065 3.76024 3.85328 3.91296 3.74613 3.73138 3.55913 2.68105 3.09622 
2.71093 2.66777 3.07411 3.20088 3.17204 3.22432 3.23824 3.22493 3.24108 
3.23796 3.23316 4.34942 4.3756 5.42355 4.99797 3.02035 3.29718 3.08819 
2.42875 2.30123 2.33679 2.34661 2.33456 2.45056 2.39512 2.41378 2.3242 
2.28381 2.2665 2.30983 2.29008 2.24476 2.29092 3.93573 3.86818 3.87786 
3.89474 3.88787 3.74818 2.90681 2.84295 2.88545 2.15872 3.07329 3.12934 
3.11046 2.87756 5.50304 5.39028 2.97178 2.98629 2.98896 2.98916 5.61427 
5.14667 5.87381 2.52158 2.51198 2.55196 2.42662 2.37543 2.33241 2.27284 
2.30302 2.36611 2.27036 3.79733 3.7605 3.7653 3.77064 3.78101 3.78806 
5.52163 5.57118 4.04644 4.24215 4.38666 3.8975 3.69361 3.56308 3.53872 
3.34121 3.05124 3.00098 3.05351 4.03678 4.15237 3.94789 2.4256 2.49515 
2.44273 2.47188 2.38171 2.39307 2.52322 2.41969 2.26134 2.23106 2.3241 
2.28945 2.17349 3.75615 3.75516 3.69213 3.72049 3.74014 3.77866 3.86544 
3.59355 4.12655 5.09802 3.90001 3.81541 5.05196 4.05108 2.2179 2.22634 
2.18069 2.9256 2.89723 2.89879 2.87676 2.9078 2.98451 2.97893 2.95581 
2.26362 2.78183 2.60271 2.50897 2.96983 2.63861 2.78526 2.54437 2.61203 
2.59849 2.52038 2.63292 2.71687 2.52113 2.28289 2.35469 2.24991 2.18307 
2.61051 3.75042 4.06392 3.51908 3.10569 3.10383 3.09006 2.39987 2.55425 
3.27969 3.22349 3.15297 2.66183 2.6627 3.25367 2.70553 2.76552 2.19317 
6 2.81282 2.79536 3.13179 3.11739 2.35269 2.20033 2.47233 2.19677 
2.70961 2.50871 3.43485 3.02809 3.37071 3.22613 2.20391 2.37314 2.23437 
2.64577 2.49875 2.58647 2.61652 3.05871 2.98144 2.85701 2.89981 2.81859 
2.83087 2.9358 2.88922 2.953 2.95205 2.93829 2.85333 2.65494 2.77644 
2.84609 2.94989 3.16875 3.21438 2.20078 2.31981 2.26743 2.30108 2.31544 
2.23046 2.54786 2.61213 2.69245 2.33749 2.31515 2.28883 2.41114 2.83714 
2.94416 2.54679 2.59135 2.57671 2.56622 2.56702 4.33286 2.56631 2.66837 
3.09928 2.7755 2.84923 3.77143 2.40671 2.37291 2.3798 2.42384 2.42888 
3.06113 3.17125 2.98499 2.57415 2.50969 2.22259 2.30931 2.48893 2.24903 
2.19573 3.47839 2.1538 2.18912 2.16649 2.20434 2.99875 2.99004 2.52048 
2.17742 2.54929 2.36819 2.15373 2.20981 2.46059 2.48752 2.37489 2.28597 
2.27731 2.34023 2.38566 2.48302 2.2734 2.99743 2.9844 3.2231 2.54495 
2.6215 2.34115 2.46932 2.75671 2.70962 2.74804 2.49425 2.61658 4.28918 
2.44887 3.03611 3.06479 3.08647 2.98346 2.45483 2.20591 2.16702 2.36688 
2.27638 2.323 3.1165 2.31992 3.56152 3.51095 2.19825 2.43977 2.15748 
5.33079 2.92057 2.86442 2.71595 2.80632 2.70283 2.19911 2.16814 2.29605 
2.69415 2.82022 2.4198 2.55738 2.55662 2.33442 2.43669 2.26743 2.20111 
2.2788 2.32609 2.45087 2.38523 2.61637 2.55291 2.5336 2.36591 2.16815 
4.20039 4.53016 4.90961 2.20383 2.20137 3.11094 3.32166 3.0656 3.0382 
3.4549 2.34954 2.48714 2.76567 2.73484 3.10967 3.19031 3.19795 2.88945 
2.94559 2.17296 2.87244 2.84487 2.87973 2.86676 2.83171 2.85963 2.85557 
2.86725 2.87489 2.94538 2.89413 2.62295 2.70849 2.45901 2.48145 3.07555 
2.98932 3.01729 2.65353 2.62107 2.27825 2.24343 2.24978 3.02581 3.0442 
2.66503 2.45984 2.58826 2.50862 2.43319 2.43632 2.57001 2.52932 2.55475 
5.74936 2.21076 4.18181 2.18603 2.22994 3.69748 2.26709 2.24641 2.81787 
2.78637 2.75485 2.66456 2.43562 2.56121 2.35233 2.3643 3.08621 3.18122 
3.14021 2.79812 2.78397 2.79036 3.06021 3.08189 3.05793 3.02685 3.05081 
3.12637 5.99999 5.72657 5.71545 5.86123 5.58493 3.0153 2.51399 2.44453 
6 2.55428 2.38914 2.40415 2.41073 2.17163 2.76641 2.5455 2.29054 
4.74898 4.42865 2.91278 2.86052 2.82163 2.99029 3.00131 3.00188 2.96125 
5.88227 3.43271 3.48081 3.29891 3.23121 3.17864 3.16845 3.15503 2.52448 
2.43717 5.85659 2.79369 2.90522 3.0748 2.79323 2.76607 2.55121 2.60875 
2.60677 2.72287 2.4315 2.33691 2.56102 2.63669 2.15934 2.31385 2.53882 
2.29268 2.26786 2.43532 2.61064 2.84574 2.66605 2.81914 2.90516 2.96471 
2.32315 2.61921 2.27924 2.24487 4.80561 5.60092 3.69114 2.36501 2.99432 
3.58697 2.8491 3.53665 2.28471 2.20627 2.31036 2.29316 2.31654 2.44267 
2.22981 2.24836 2.17404 2.9292 3.07852 3.11483 3.07758 3.10839 2.96822 
3.00156 2.94661 2.91241 3.08893 3.32845 2.25605 2.42039 2.25001 2.23604 
3.59418 2.27639 6 5.94808 6 3.45536 2.58066 2.59525 3.62483 
2.16849 4.67669 5.24857 2.20197 2.94888 3.0114 2.75714 2.85118 2.81366 
2.55296 2.42041 2.35469 2.26124 2.21823 2.21889 3.95654 3.56641 3.8583 
3.84409 3.70473 3.71572 3.74805 3.59417 3.59495 3.59411 3.59414 2.62424 
2.96192 6 6 6 2.69772 2.55734 2.53501 5.60829 5.53736 
2.17143 2.58938 2.55701 2.69924 2.39985 2.44613 2.60932 2.31819 2.38638 
2.24471 2.9587 3.13004 3.34562 2.17151 2.20842 2.20143 2.24072 4.7348 
4.92463 4.93006 4.85734 3.72788 4.35548 4.50265 3.76669 3.81735 3.91812 
3.9726 3.59155 3.79335 4.00443 3.93688 3.94866 4.0078 4.00599 4.0183 
3.98682 3.94854 2.47215 3.96978 3.99498 2.37082 3.9981 4.04279 4.12104 
4.19608 4.08822 4.20653 4.19631 3.885 3.70223 3.5066 3.40657 3.48145 
3.31329 3.50171 3.34737 3.60352 3.15459 3.06954 5.8691 6 2.33646 
2.31399 2.44677 3.04866 5.74617 5.71679 5.67663 4.8365 3.8239 2.46851 
2.18699 2.67841 2.76495 2.87442 2.90168 2.23693 2.22095 2.1629 4.05923 
3.98009 3.94544 3.93507 3.88417 2.53539 3.15524 3.15855 3.10512 2.82881 
2.98593 2.87772 2.91059 3.95423 3.94441 3.90818 3.94367 4.00476 2.69067 
4.07705 4.03079 2.592 2.81945 2.87274 2.80502 3.01237 2.88556 4.15712 
2.80594 3.97952 4.34228 4.48991 4.80486 4.32995 4.88256 4.81055 5.051 
5.14741 4.9615 3.05643 3.16969 3.1312 5.3678 3.23761 3.18525 2.17713 
3.11193 5.70654 5.59163 2.19242 2.97744 2.17634 2.30768 2.33242 2.31878 
5.73257 5.75449 5.74372 5.18549 4.96156 2.23408 2.43999 2.43393 2.40968 
2.39225 2.32809 2.67085 2.21381 2.22291 2.20026 2.193 2.17825 2.19004 
2.53781 2.31756 2.47915 2.63402 2.84354 3.00937 3.0966 3.13772 2.94127 
2.81113 2.92259 2.37184 2.56106 2.42044 2.37609 2.27451 2.324 2.52954 
2.64843 2.75747 3.04489 2.84747 2.72415 2.5786 3.21479 3.29573 3.16104 
3.40806 2.92343 2.95442 2.92275 2.91251 2.9676 2.98556 2.64742 2.17316 
5.55478 5.5535 2.85949 2.27691 2.33145 2.29674 5.24942 5.3751 5.33353 
2.28955 2.39466 2.35571 2.22589 2.25838 2.41901 2.48288 2.30362 2.24382 
2.23344 2.20492 2.17196 2.2093 2.48729 2.36243 2.41693 2.35554 2.60941 
2.53036 3.15998 3.20459 3.17107 2.78915 2.89767 3.13399 3.06716 3.07521 
3.07656 2.2044 4.50232 5.53766 5.87778 2.39883 2.36062 2.50917 2.47565 
2.34775 5.82038 5.31131 5.35256 2.41099 2.44569 2.55888 2.30602 2.24022 
2.40949 2.51365 2.45562 2.40938 2.35268 2.4122 2.17635 2.69433 2.30861 
2.179 2.19601 2.29736 4.85203 2.51891 2.24606 2.19621 2.16952 2.22619 
2.18362 2.22555 2.34109 2.27772 2.38533 2.39502 2.3973 5.19873 5.49152 
2.44115 4.93766 4.18823 4.44657 4.504 2.27126 2.55832 2.54141 2.48155 
2.5128 2.5198 2.32179 2.41231 2.28258 2.36629 2.5006 2.91654 2.77185 
2.15668 2.30883 2.26751 2.24346 2.22578 2.19464 5.82977 2.2039 2.23449 
2.39846 2.42752 2.40492 2.46547 2.49592 2.53266 2.55262 2.55837 2.4769 
2.35388 2.40029 2.672 2.73638 3.14623 3.24228 3.34247 3.56467 3.54145 
3.5168 3.67377 2.61933 2.85141 2.758 2.74602 2.46185 2.25087 2.28293 
2.5257 2.54615 2.56747 2.54809 2.55587 2.51591 2.47066 2.41277 2.42159 
4.30966 4.22573 2.51423 2.48705 2.38296 2.56766 2.9982 2.95349 2.91473 
2.84503 2.82141 4.63292 4.76067 4.8013 4.71296 4.50899 3.77252 3.95807 
3.87813 4.0504 4.27563 4.19407 4.37982 4.20323 4.1765 4.13516 4.23223 
4.24366 4.29335 2.23085 2.26201 2.3086 2.27442 2.52029 4.53692 4.49142 
3.13627 3.20016 2.96762 3.12221 2.96395 2.79267 2.84353 2.81096 2.82467 
2.71706 2.61933 2.6599 2.54448 2.58869 4.15342 4.08167 2.16421 2.25996 
2.18431 3.24135 3.241 3.24585 3.25314 3.2453 3.10226 3.14932 4.51868 
4.37556 4.45939 4.30755 4.357 4.18595 4.14517 4.07418 2.38346 2.22915 
2.50046 3.90366 4.00946 2.15877 2.1731 2.16138 3.13791 3.12401 3.1318 
3.21666 3.23926 3.24223 3.72591 3.00475 4.44268 3.3327 3.7548 3.70668 
4.04292 2.4466 2.16366 2.19017 2.20238 2.17923 2.18441 2.22169 2.41611 
2.29153 2.4143 2.39623 3.09908 3.1084 3.10298 3.12342 3.12574 2.7505 
2.85501 3.47938 3.62279 2.30082 2.69933 2.56387 3.06009 2.75796 2.78314 
3.54726 2.52666 2.79094 2.81516 2.80714 2.15486 3.47966 3.45204 2.19774 
2.21311 2.83656 2.81396 2.74486 3.80151 4.05224 2.1954 2.18789 2.17133 
2.90728 2.85783 2.15988 2.1596 2.36565 3.16953 2.58197 2.18386 2.81514 
2.71161 2.61729 3.59094 3.59777 2.27145 2.24536 2.2283 2.24963 2.20177 
2.24248 2.49018 2.47733 3.60668 4.11995 3.79931 4.65942 4.92968 4.67749 
2.23212 2.26586 2.28553 4.29688 2.56059 2.5371 3.48241 2.75307 2.77229 
2.97446 2.81282 2.2277 2.3523 2.3599 2.39409 2.2921 2.92374 2.79652 
3.82618 2.25501 2.2618 4.23754 4.29058 2.56198 2.55988 2.27248 2.37115 
2.47973 2.90724 3.25479 3.45455 3.34533 3.27626 3.20601 3.02997 3.83452 
3.71782 2.57056 2.60823 2.59598 3.13562 3.16504 2.27801 4.81338 4.99792 
2.77286 2.70128 2.46047 3.08255 3.10672 2.62285 2.42665 2.19854 5.52618 
5.31606 2.33908 2.67915 3.323 3.28658 5.62584 5.64737 2.23431 3.4742 
2.57472 2.2563 2.20978 2.41626 5.63741 5.63183 2.18044 2.16891 3.71691 
3.7039 3.66442 3.08626 3.04363 4.92127 2.89018 5.70248 5.80947 5.93079 
2.41382 2.44639 2.4688 2.26042 2.23431 2.24412 2.24508 5.32633 5.57127 
5.60303 5.0206 5.52788 5.34311 5.98809 2.15693 2.15618 2.1927 2.23071 
2.26596 4.42969 6 6 6 2.20529 3.70013 4.00526 5.32506 
5.59856 2.3801 2.30799 3.09928 2.97068 3.42198 4.21657 4.55972 2.39835 
2.19566 2.2267 2.67827 2.733 2.54031 2.7999 4.07515 3.72458 2.16192 
2.36776 2.40388 3.18696 3.0058 3.09971 3.04079 2.19988 2.9847 2.42641 
2.91871 2.40334 2.31526 2.29066 2.18905 2.21212 2.22948 2.26936 2.23081 
2.36492 2.37607 2.19653 2.17038 2.24887 2.53907 2.49129 2.63677 2.57342 
2.50109 2.66213 2.62915 2.40653 2.16206 2.21982 2.27558 2.1846 2.55058 
2.43248 2.5205 2.67788 2.73309 2.3435 2.24692 2.17731 2.37968 2.27763 
2.18629 2.25974 2.2286 2.16487 2.66803 2.64018 2.396 2.54644 2.51351 
2.42786 2.3132 3.44854 3.12955 3.26377 2.17115 2.25356 2.54717 2.16532 
2.70499 2.68688 2.25611 2.16505 2.27114 2.19599 2.67388 2.767 2.56702 
2.51113 2.5392 2.18206 2.70577 2.55189 2.18574 2.78361 2.39472 2.24837 
4.08366 3.35876 3.44901 3.08972 2.92596 2.42849 2.22118 2.65415 4.38204 
4.28863 4.15943 3.74603 3.25867 2.94369 2.28445 2.26485 2.30773 3.55868 
2.75843 2.82885 2.25958 2.23017 2.27761 2.36589 2.21996 2.21602 2.15732 
2.25273 2.29159 2.41297 2.3861 2.43552 2.48499 2.6023 2.73147 2.77684 
2.23568 2.20108 2.32087 2.59548 2.19573 2.51414 2.84355 2.84446 2.2255 
2.44332 2.32974 2.30093 2.26863 2.74848 3.01712 2.26746 2.27999 2.46084 
2.35525 2.27016 2.68756 2.75489 3.81546 3.25926 4.00818 3.00505 2.95247 
2.74244 3.38583 3.31714 2.43835 3.08652 3.08152 3.08636 3.04629 2.51379 
2.51473 3.77269 3.78888 3.63522 3.79401 3.78608 3.2965 3.50547 2.17236 
3.05485 2.41959 2.25262 3.69006 3.74216 2.2188 2.23083 2.30164 4.51664 
5.33626 5.99991 5.75085 6 2.44278 2.59618 2.59334 2.57286 2.37569 
6 2.41098 2.98514 3.01699 2.43715 2.63935 6 2.81623 2.93587 
2.34837 2.79752 2.96824 2.82165 6 2.96116 3.01547 3.02147 2.35141 
2.28008 6 2.18903 2.35755 2.35072 2.20162 2.16923 2.1912 2.33112 
5.89224 2.25733 2.36238 2.236 3.3629 2.30448 2.46108 2.17873 2.19827 
2.53331 2.44383 3.79324 3.78053 2.55227 2.6128 2.25492 2.86147 2.16457 
3.08962 2.29518 2.17984 2.25357 2.21607 2.3034 3.99716 2.20296 2.43157 
2.40384 2.47398 2.27898 2.27261 2.27915 2.20718 2.15986 2.1573 2.52318 
2.65378 2.52771 2.62077 2.33301 2.37044 2.52073 2.49057 2.43347 2.7347 
2.83171 2.26183 2.3399 2.54129 2.47674 2.83068 2.80807 2.19919 2.71795 
2.26493 2.4364 2.41209 2.30827 2.38341 2.36985 2.38133 2.59882 2.62735 
4.32328 4.31646 2.18704 2.24482 2.21837 2.6906 4.42832 4.37189 4.51569 
4.52821 2.59169 2.1887 2.59342 2.30259 2.43409 3.0107 2.79637 4.06892 