# vtk DataFile Version 4.0
vtk output
ASCII
DATASET POLYDATA
FIELD FieldData 7
irad 1 1 float
0.8 
srad 1 1 float
4 
spacing 3 1 float
0.625413 0.625413 0.625282 
liveth 1 1 float
-90 
seedth 1 1 float
-70 
AV_classification_dnn_model_name 1 1 string
Model_v03_all_points.hdf5

vessel_sizing_dnn_model_name 1 1 string
Model_v01_df93962_best.hdf5

POINTS 10247 float
-18.5778 -81.7403 -213.372 -17.5572 -87.2006 -209.611 -29.921 -65.3145 -209.503 
-29.4915 -65.2936 -209.847 -28.6375 -65.3003 -210.557 -29.0499 -65.2839 -210.185 
-17.8284 -87.073 -209.131 -18.2225 -86.8503 -208.827 -18.5768 -86.4861 -208.667 
-30.3486 -65.3286 -209.146 -20.4887 -88.1462 -206.891 -22.729 -80.1449 -204.013 
-32.8243 -66.8098 -204.078 -32.5265 -66.894 -204.498 -33.0846 -66.7716 -203.688 
-41.3799 -60.7365 -203.683 -33.4776 -66.8435 -202.825 -33.2821 -66.7214 -203.304 
-50.2292 -62.9427 -203.305 -49.8858 -62.8491 -202.509 -40.0937 -62.4593 -202.306 
-40.7957 -61.4851 -203.057 -41.0847 -61.1159 -203.359 -40.3732 -62.0621 -202.612 
-63.4095 -58.0359 -202.372 -63.3214 -57.7427 -202.832 -35.6726 -67.8809 -201.237 
-34.8434 -67.6531 -201.649 -33.4684 -67.2084 -202.066 -32.902 -67.7722 -201.124 
-33.1591 -67.4936 -201.526 -48.0912 -64.9127 -201.316 -47.6757 -65.218 -201.165 
-47.2854 -65.4731 -200.997 -49.4543 -63.5415 -201.92 -49.1662 -63.9217 -201.728 
-48.5205 -64.5669 -201.46 -37.6196 -64.2529 -201.249 -49.7081 -63.1658 -202.143 
-39.688 -62.7859 -202.047 -38.9582 -63.0726 -201.878 -63.5141 -58.6164 -201.529 
-63.5528 -58.982 -201.108 -63.4713 -58.3363 -201.936 -26.8167 -83.3983 -200.02 
-26.6613 -83.0101 -200.414 -26.5507 -82.6487 -200.814 -36.9982 -68.2947 -199.946 
-32.5169 -68.4188 -200.377 -32.3111 -68.7701 -199.995 -36.7256 -68.0818 -200.315 
-36.3093 -68.0017 -200.834 -32.6954 -68.0228 -200.79 -46.4643 -65.8899 -200.561 
-46.046 -66.0554 -200.284 -37.0047 -66.016 -200.529 -37.1519 -65.505 -200.717 
-37.3072 -65.0062 -200.938 -63.5839 -59.5384 -200.582 -67.7173 -200.29 -198.999 
-27.7715 -85.2582 -198.806 -27.5493 -84.8106 -199.092 -27.3251 -84.353 -199.378 
-24.7802 -75.3866 -199.767 -22.4624 -73.3245 -199.028 -22.6841 -72.3346 -199.236 
-32.3157 -71.0903 -198.861 -32.2204 -70.2805 -199.241 -43.0553 -68.7937 -198.617 
-43.4592 -68.4578 -198.755 -37.2451 -68.5504 -199.597 -37.739 -69.2142 -198.874 
-32.1647 -69.4477 -199.538 -44.3635 -67.4357 -199.018 -43.8568 -68.0708 -198.885 
-62.6861 -60.9548 -198.843 -52.349 -58.7762 -198.686 -52.412 -58.3885 -199.068 
-15.5525 -102.402 -197.522 -15.5201 -102.03 -197.993 -15.5072 -101.687 -198.43 
-28.0096 -85.7163 -198.5 -22.6614 -74.7225 -198.212 -22.6657 -75.3273 -198.011 
-33.0132 -73.5471 -197.447 -32.5856 -72.456 -198.083 -32.7918 -73.0887 -197.709 
-32.4245 -71.7395 -198.496 -41.8037 -69.6185 -198.152 -41.3654 -69.8697 -197.961 
-40.9147 -70.1234 -197.742 -40.3525 -70.552 -197.474 -38.512 -70.1853 -197.622 
-38.1858 -69.7638 -198.236 -23.6176 -69.7955 -197.901 -42.2674 -69.3463 -198.33 
-42.6669 -69.0838 -198.48 -23.6958 -69.2832 -197.697 -73.8544 -64.4687 -198.298 
-61.3251 -62.5486 -197.664 -62.3025 -61.3464 -198.456 -61.9776 -61.7068 -198.185 
-61.6653 -62.1051 -197.935 -52.1944 -59.4621 -197.822 -52.2756 -59.1375 -198.272 
-21.6347 -105.439 -196.429 -20.1542 -105.686 -197.128 -20.9218 -105.527 -196.782 
-15.6006 -102.736 -197.035 -22.4476 -77.532 -197.261 -34.3616 -75.8078 -196.328 
-36.3912 -74.4549 -196.911 -34.8983 -75.425 -196.526 -33.6311 -74.7357 -196.784 
-37.6309 -73.3097 -196.872 -37.2473 -73.7 -196.908 -36.7953 -74.1198 -196.927 
-33.1912 -74.0148 -197.174 -38.3293 -72.4801 -196.704 -37.9931 -72.9093 -196.813 
-39.7647 -70.9031 -197.238 -39.135 -71.1851 -196.881 -38.9633 -71.5635 -196.546 
-38.7532 -70.5421 -197.168 -72.1413 -65.1277 -197.192 -71.6596 -65.3518 -197.12 
-71.1441 -65.5273 -197.01 -70.6224 -65.6581 -196.886 -69.2544 -65.7372 -196.78 
-67.3471 -65.8281 -197.007 -51.8609 -60.8153 -196.316 -51.9557 -60.4188 -196.646 
-52.0707 -59.94 -197.162 -40.1913 -79.6051 -195.174 -22.8258 -79.513 -196.096 
-33.2261 -78.3912 -195.207 -33.8039 -76.8852 -195.913 -33.6273 -77.3244 -195.732 
-33.4561 -77.7582 -195.534 -33.9946 -76.4501 -196.083 -39.0565 -72.0218 -195.367 
-38.946 -71.8325 -195.914 -64.6168 -67.2524 -195.578 -65.0681 -67.1425 -195.696 
-65.5367 -66.9645 -195.847 -60.6883 -67.0324 -194.98 -51.7568 -61.2889 -195.961 
-12.4128 -98.9964 -194.002 -12.6352 -98.5371 -193.918 -12.1632 -99.4742 -194.048 
-21.6148 -85.7343 -194.398 -22.5375 -82.5515 -193.837 -22.6354 -82.1303 -194.132 
-32.6729 -80.8111 -193.91 -32.8584 -79.8671 -194.393 -33.0345 -79.0593 -194.837 
-33.0638 -78.9444 -194.901 -39.201 -72.2544 -194.759 -39.1815 -72.2115 -194.853 
-58.7053 -67.3926 -194.196 -59.1862 -67.2155 -194.47 -58.2654 -67.5674 -193.953 
-57.8079 -67.7698 -193.768 -60.0138 -66.9822 -194.851 -46.1776 -200.068 -193.726 
-50.7173 -196.935 -192.55 -24.1256 -105.541 -192.733 -22.1847 -84.3351 -193.022 
-32.1382 -83.1233 -192.757 -22.4314 -83.0092 -193.538 -22.2835 -83.737 -193.133 
-32.3797 -82.1341 -193.268 -32.249 -82.6683 -193 -32.544 -81.4194 -193.616 
-39.8541 -73.2015 -192.799 -39.637 -72.9544 -193.258 -39.4831 -72.7215 -193.695 
-56.6802 -68.2951 -193.405 -56.162 -68.5728 -193.24 -55.355 -69.0488 -192.949 
-54.6394 -69.4389 -192.656 -54.7815 -69.3745 -192.714 -57.1504 -68.063 -193.552 
-48.351 -202.605 -191.841 -59.6775 -198.976 -191.659 -60.2575 -198.62 -191.871 
-50.1917 -198.252 -191.533 -50.4256 -197.486 -192.015 -18.548 -95.9374 -192.367 
-31.7162 -89.9103 -192.465 -31.6933 -85.4391 -191.546 -31.7706 -84.9606 -191.779 
-31.8088 -84.7402 -191.891 -22.3339 -84.921 -191.966 -31.9959 -83.7581 -192.414 
-40.7218 -74.2122 -191.664 -40.1112 -73.5008 -192.397 -40.3381 -73.7344 -192.108 
-54.1544 -69.6058 -192.47 -52.6736 -69.7974 -191.921 -53.3149 -69.747 -192.153 
-52.1698 -69.8302 -191.721 -51.7103 -69.9978 -191.466 -50.7711 -66.6958 -192.166 
-50.669 -66.0598 -192.265 -59.5851 -198.787 -191.2 -59.2132 -198.402 -190.307 
-30.8206 -88.3205 -190.58 -30.6205 -88.7638 -190.376 -31.3614 -87.2376 -190.817 
-31.4966 -86.7501 -190.976 -31.62 -85.9298 -191.325 -31.5925 -86.1 -191.252 
-22.6701 -85.72 -190.252 -22.5936 -85.5139 -190.677 -22.4968 -85.2863 -191.164 
-41.3308 -74.9726 -190.837 -41.015 -74.6023 -191.341 -41.1969 -74.8406 -191.091 
-41.1034 -74.7295 -191.237 -50.44 -71.1771 -190.55 -50.8501 -70.7975 -190.839 
-50.0509 -71.5318 -190.272 -51.1808 -70.4817 -191.076 -58.7687 -197.921 -189.715 
-58.2943 -197.407 -189.228 -37.2934 -196.606 -189.688 -37.6971 -196.56 -189.307 
-66.4754 -194.366 -189.062 -30.302 -90.2109 -189.224 -30.5154 -89.1963 -190.09 
-30.3783 -89.7968 -189.592 -22.7377 -85.9334 -189.828 -22.8028 -86.1724 -189.354 
-86.1238 -83.8019 -189.199 -41.9509 -75.4536 -189.479 -49.3464 -72.1921 -189.762 
-49.656 -71.8889 -189.995 -48.8582 -72.6992 -189.367 -55.3519 -70.5549 -189.184 
-57.8284 -196.942 -188.795 -57.4585 -196.615 -188.477 -54.0591 -197.311 -187.912 
-38.241 -196.411 -188.811 -57.0863 -196.283 -188.151 -66.1649 -193.911 -188.842 
-65.8403 -193.447 -188.589 -65.597 -193.107 -188.279 -65.3596 -192.83 -187.9 
-78.1313 -187.046 -188.155 -78.4322 -187.218 -188.666 -17.4131 -102.761 -188.834 
-17.4701 -102.706 -188.541 -10.6314 -102.907 -188.254 -30.0464 -91.6922 -187.786 
-30.2409 -90.5745 -188.891 -30.1496 -91.1314 -188.366 -30.2183 -90.7106 -188.774 
-22.9289 -86.7644 -188.152 -22.889 -86.5493 -188.616 -85.1656 -83.6921 -188.425 
-85.5652 -83.7733 -188.761 -83.2669 -81.9903 -187.934 -83.3269 -82.5341 -187.744 
-50.9855 -78.1638 -187.91 -51.1926 -78.5793 -188.308 -50.5459 -77.7577 -187.819 
-50.1297 -77.3954 -187.749 -42.3424 -75.7378 -188.739 -42.8839 -76.0982 -187.814 
-42.5883 -75.908 -188.286 -47.2066 -74.3421 -187.819 -60.4109 -73.2445 -188.171 
-59.9752 -73.4657 -187.898 -48.0178 -73.61 -188.502 -48.3032 -73.3065 -188.799 
-47.7104 -73.9105 -188.208 -56.3441 -72.0975 -188.277 -55.8953 -71.4752 -188.786 
-51.5747 -202.785 -186.671 -52.6352 -201.452 -186.969 -52.7795 -200.956 -187.131 
-52.9205 -200.289 -187.315 -53.0078 -199.807 -187.441 -56.1909 -195.454 -186.904 
-55.9614 -195.825 -187.129 -56.3682 -194.966 -186.555 -65.0927 -192.6 -187.527 
-64.8128 -192.395 -187.152 -64.4307 -192.109 -186.668 -77.7929 -186.946 -187.672 
-17.8372 -102.503 -186.601 -17.6909 -102.529 -187.186 -29.2752 -101.343 -186.771 
-82.1799 -92.4828 -187.067 -81.6693 -92.6515 -187.052 -80.6125 -92.9704 -186.987 
-81.1582 -92.8165 -187.027 -78.1926 -93.3344 -186.874 -77.134 -93.4041 -186.875 
-77.6351 -93.3803 -186.868 -76.0788 -93.4526 -186.806 -76.582 -93.4279 -186.855 
-75.5637 -93.4831 -186.713 -75.0478 -93.5114 -186.594 -29.7721 -92.717 -186.602 
-85.5176 -91.4646 -187.61 -84.4023 -91.6728 -187.383 -83.7075 -91.896 -187.225 
-83.0057 -92.1895 -187.109 -29.9666 -92.0494 -187.387 -29.8769 -92.3885 -187.003 
-21.4086 -89.1902 -187.061 -21.8506 -88.7524 -186.822 -49.1742 -86.7428 -187.385 
-25.796 -87.3519 -186.522 -23.1071 -87.2015 -186.797 -22.9959 -87.0931 -187.308 
-55.4277 -85.9148 -186.627 -55.9458 -85.856 -186.818 -82.7049 -84.7066 -186.521 
-83.0385 -84.0293 -186.979 -83.1516 -83.8168 -187.119 -70.5175 -83.0041 -186.888 
-44.6486 -75.9581 -186.792 -45.1744 -75.6497 -186.921 -43.2177 -76.2702 -187.37 
-58.2026 -74.3492 -187.115 -57.3892 -74.3097 -186.989 -57.064 -74.7599 -186.713 
-46.5216 -74.8242 -187.385 -45.4939 -75.4686 -187.014 -59.3566 -73.7917 -187.609 
-58.6796 -74.144 -187.314 -57.1174 -73.7791 -186.93 -76.6037 -65.7846 -187.034 
-51.1189 -203.023 -186.464 -56.4864 -194.591 -186.289 -56.6084 -194.151 -185.9 
-41.2017 -194.46 -185.931 -56.7057 -193.743 -185.459 -64.1588 -191.854 -186.307 
-63.8618 -191.529 -185.884 -63.6741 -191.088 -185.479 -50.6699 -188.401 -185.792 
-77.3091 -185.802 -185.889 -77.2778 -186.233 -186.254 -77.3852 -185.348 -185.571 
-18.2323 -102.558 -185.747 -15.1146 -102.006 -186.195 -29.4311 -100.786 -186.065 
-29.2793 -93.9766 -185.636 -74.5388 -93.529 -186.474 -74.0193 -93.5262 -186.371 
[...]
POINT_DATA 10247
SCALARS scale float
LOOKUP_TABLE default
1.64534 1.91083 1.71953 1.74919 1.75488 1.75379 1.6233 1.70461 1.7137 
1.61067 3.15962 1.61696 1.95896 1.72023 2.05591 1.63066 2.12409 2.25141 
1.72483 1.6967 1.64615 1.83931 1.79912 1.60356 1.7882 1.65281 1.91993 
1.77164 1.66008 1.72293 1.6624 1.66981 1.63755 1.60535 1.85458 1.85852 
1.76809 2.15651 1.78353 1.62403 1.59503 1.8962 1.82486 1.89972 1.6068 
1.66157 1.71758 2.29994 2.03075 2.0498 2.25546 1.9592 1.79489 1.62772 
1.64341 2.15497 2.15843 2.1997 1.64828 2.21032 1.89628 1.90217 1.75528 
1.7609 1.72113 2.61068 1.93844 1.86274 2.64242 2.53028 2.28556 2.48499 
1.86517 1.99506 2.33087 1.92739 1.67198 1.61007 1.64504 1.68041 1.68579 
1.76883 1.6724 1.77277 1.99683 1.96495 1.95733 1.96921 2.80075 2.74658 
2.60406 2.19346 2.08137 2.45306 1.83757 2.75502 2.70231 1.71221 1.60851 
1.62124 2.11481 2.16449 2.0692 2.08029 1.85991 1.60369 1.64 1.67466 
1.60398 1.59221 2.05316 1.79766 1.7249 1.74828 1.90525 1.90167 1.85641 
1.83731 1.89676 1.89727 1.93907 1.82878 1.93195 1.71764 1.61558 1.71408 
1.72685 1.70538 2.02711 1.64986 1.91529 2.08465 2.23892 1.73289 1.64928 
1.91905 1.91801 1.90187 1.92618 1.9808 1.76608 1.75812 2.06401 1.88104 
1.75074 1.64485 1.59691 1.73048 1.73196 1.63824 1.60774 1.72258 1.64506 
1.9432 1.9047 1.90251 1.8917 1.80391 1.75934 1.74427 1.77753 1.79841 
1.77975 2.11212 1.6749 1.99816 1.65131 2.64096 1.88603 1.8016 2.08095 
1.88808 1.87689 1.93162 1.8253 1.92149 1.89063 1.73536 1.69991 1.6908 
1.67423 1.65751 1.75989 1.89699 1.72524 1.61269 1.62865 1.86434 1.71652 
2.16085 1.76825 1.80276 1.81545 2.46497 1.87568 1.66448 1.79228 1.696 
1.63926 1.64803 1.63143 1.75533 1.79284 1.59205 1.59331 1.65393 1.59585 
2.55044 2.66155 1.90369 1.69358 1.72664 1.73346 2.47592 2.45231 2.39609 
1.81779 1.71673 1.80473 1.80806 1.72621 1.72308 1.71421 1.71535 1.59245 
1.6395 3.10364 3.08125 1.6664 2.3099 2.55037 2.43995 2.482 2.45121 
1.6245 1.67455 1.59778 1.68086 1.6038 3.65311 1.64115 1.61135 1.59453 
2.96105 1.64855 1.6729 1.64896 1.69545 1.87311 1.6445 1.60316 1.59988 
1.59338 1.63961 2.07882 2.21276 2.08813 2.12444 2.2127 2.25076 1.60749 
1.64678 1.74165 1.72723 2.46033 1.99484 2.50701 2.38867 1.74696 1.7262 
1.69546 2.23122 1.60115 1.60053 2.00634 1.88625 2.11795 3.70437 3.79364 
1.7593 1.59415 1.84787 1.84684 1.71232 1.77377 1.62052 1.81051 1.95841 
1.99099 2.07308 1.64831 1.6338 1.60736 3.85238 1.8102 1.76025 1.69884 
1.71857 1.90958 1.92943 1.90665 1.91566 1.91122 1.92717 1.96657 2.21946 
1.71333 1.90074 1.88926 1.87131 2.09233 2.05344 2.35005 2.2887 1.85342 
5.22021 2.33174 2.26668 1.64823 1.63447 1.9417 1.67993 1.66443 1.64687 
2.30995 2.40762 1.83323 1.6517 2.54873 2.12564 2.63758 2.49291 1.60228 
1.59201 2.37275 1.65403 1.68259 1.92279 2.07498 1.60369 2.06468 2.12615 
2.02506 1.94604 1.65272 2.27451 2.42722 2.20363 1.66141 1.97493 3.80246 
2.34957 2.02405 2.07294 2.09541 2.06177 2.10803 2.09134 2.03392 2.28885 
2.37765 2.40624 2.53483 5.47355 1.7598 1.72097 4.97574 2.09135 2.25937 
2.29656 2.34859 1.65113 1.65172 2.16716 1.60502 1.63993 1.60781 1.68999 
2.02998 2.12865 2.07017 2.02713 1.99055 2.24344 1.85386 1.94823 2.2913 
2.34831 1.72919 1.75507 1.78924 1.88854 1.95659 2.21593 1.97849 2.00989 
1.70966 1.71372 1.82477 1.68778 1.60144 1.69714 2.11995 2.04463 1.9046 
1.89105 1.77771 2.35707 2.28075 2.34249 2.10902 2.91345 1.84044 1.71002 
1.727 1.78165 1.69259 1.68676 1.60732 1.8443 1.67413 1.94731 1.97336 
1.94981 1.95 2.0572 2.38386 2.30382 2.19181 2.29521 2.18292 2.51486 
2.54944 2.42038 2.29567 1.77259 1.71035 2.27372 2.11809 2.06973 1.99147 
1.65889 1.74562 2.44517 2.15236 2.1528 2.17453 2.18027 2.03664 1.79488 
2.00698 2.04788 2.28151 2.21904 2.0305 2.01066 2.0784 1.95114 1.98612 
1.62614 1.93891 1.79516 2.08762 2.28462 1.96763 2.10939 2.22993 2.21706 
2.21141 2.27728 2.2191 2.24402 1.94531 1.96719 1.64284 1.87777 1.76021 
1.88703 1.67557 3.19138 3.00979 3.31521 3.28272 3.31424 1.74085 1.62552 
1.75203 1.99146 1.99852 1.94022 1.87359 1.86837 1.84145 1.63016 1.59268 
1.63337 1.61509 1.59905 1.60297 1.59162 1.59798 1.64328 1.69741 1.60617 
1.61117 1.70383 1.64123 1.82655 1.78837 1.59239 1.99626 1.93335 2.13095 
2.06626 2.10651 2.11876 2.39162 2.20996 2.17559 2.22565 2.43166 2.43686 
2.07545 2.40836 1.67913 1.68563 1.81284 1.72667 1.69684 1.71734 1.70803 
1.66909 1.7437 1.67894 1.68963 1.6826 1.64584 1.66327 1.65707 1.66941 
1.73959 1.71269 1.69841 2.04601 2.27057 2.19608 1.79041 1.86296 1.9245 
3.27697 1.77604 1.8026 1.92316 2.09735 1.96388 1.70318 1.89476 1.90476 
2.21438 2.17423 2.01429 1.91612 1.90819 1.80007 1.77115 1.89111 1.99929 
2.00488 2.05765 2.67373 2.18976 1.82328 1.83686 1.88927 1.90725 1.68987 
1.60181 1.59949 1.61066 1.63569 1.69369 1.59264 1.60094 1.601 1.68236 
1.68369 1.72815 1.68182 1.80418 1.88682 2.32191 1.81008 1.9922 2.29712 
2.32322 2.3543 1.66001 1.69445 1.69097 1.96488 1.88825 1.89096 1.95435 
1.99484 2.01057 1.87913 3.98871 4.38267 1.88043 1.81834 1.62141 1.87572 
1.96646 2.00711 2.00206 1.99495 2.13489 1.98423 1.97768 1.77499 1.94361 
1.91935 1.83031 1.86512 1.86383 1.84133 1.84769 2.04647 1.95527 2.16903 
2.2621 1.66715 2.51735 1.84117 1.83137 1.75807 1.59608 1.63437 1.71292 
1.59742 1.63998 1.71529 2.10355 2.12298 2.11348 1.61728 1.71361 1.82113 
2.12055 2.24445 1.75275 1.88234 2.84924 1.80902 2.51214 2.71551 2.30902 
2.39953 1.83237 2.02781 1.97079 1.65181 1.68527 1.77987 2.10886 2.05277 
2.12155 2.06818 2.05083 1.97932 2.0634 1.91834 2.17784 2.00346 1.96106 
4.83941 1.90079 2.78999 2.02885 2.01382 2.54417 1.7395 1.93481 1.7311 
1.75228 1.76094 2.57334 1.73651 1.76111 1.83208 1.90525 1.90267 1.99911 
1.63461 1.64573 2.23077 2.28843 2.03338 2.35867 2.36802 2.17383 1.70844 
1.61263 1.79649 1.77311 1.6237 1.88961 1.68575 1.71368 1.7677 1.87708 
4.30681 4.41996 4.98783 1.60842 1.83599 1.64624 1.59927 2.07665 2.11871 
2.31584 2.24996 1.89639 2.08936 2.19152 1.61339 1.831 1.83402 1.7165 
1.63224 2.20239 2.14782 2.04274 1.97735 2.0226 2.08197 1.7546 2.84634 
2.92455 2.9309 2.99271 2.05049 1.98911 1.97831 1.7578 2.09703 2.11029 
2.08993 2.13359 2.84708 1.70936 1.67189 2.68529 2.69422 2.78539 2.0053 
2.00061 2.07533 2.00108 2.05417 2.00176 1.8066 2.0917 1.90448 1.88416 
1.84805 1.87743 2.15449 1.97155 1.83974 2.30578 1.77861 1.93255 1.78781 
4.17629 1.93756 1.99847 2.1811 4.03968 3.76798 3.90412 2.06819 1.95977 
2.01491 1.93812 1.93921 1.66912 1.7213 1.74206 1.62883 1.62907 1.62727 
1.61662 1.7321 1.9785 1.61925 1.75068 1.59348 1.71361 1.73391 1.73698 
1.74382 1.68284 1.81299 2.79741 2.84512 2.82391 2.83897 1.92354 1.92288 
2.70505 2.86851 1.67344 1.70886 1.71852 1.71534 1.6882 2.13007 2.30673 
2.09734 2.05004 2.87839 2.88208 2.89436 1.79304 1.8908 1.9851 1.90104 
1.95158 1.99653 1.59561 1.6423 1.66982 1.7294 1.78785 2.58553 2.49058 
2.68222 2.62094 1.62229 1.72512 1.82885 2.38059 1.87904 3.63861 3.50924 
3.11312 3.14965 1.78951 1.70333 1.82699 1.99953 1.73232 1.8146 1.71119 
1.7889 1.61 2.04991 1.91325 1.97538 2.13346 2.16969 2.08803 2.02132 
1.90792 1.7682 2.26916 2.29045 3.2158 2.72342 1.70696 2.73103 2.69112 
2.23119 2.759 2.24864 3.07645 3.623 2.05189 1.79141 2.55755 2.44024 
2.6693 2.76585 2.7018 2.69154 2.67953 2.8173 2.79195 2.77577 2.79287 
2.05378 2.01985 2.00492 2.79654 2.79805 2.8024 2.07148 2.06115 2.49971 
2.69151 2.20205 1.98568 1.65917 1.91098 1.75879 1.64261 1.66924 1.60781 
1.95145 1.64989 1.68929 1.6758 2.00812 2.09556 1.63483 1.71396 1.72051 
1.80606 1.83479 1.95276 1.7547 1.91573 2.81233 2.94691 2.91133 1.79336 
1.79713 3.68042 3.18206 3.14123 3.07466 3.16177 3.03311 1.81085 1.67433 
2.06927 2.3748 2.2579 2.15219 1.95634 2.16994 1.9341 1.73434 2.21573 
2.2047 3.3461 3.46451 3.45459 1.64051 1.99801 2.6723 2.61895 2.6683 
2.60279 2.36804 1.66309 1.67337 1.65468 1.68885 1.80785 1.72167 2.32846 
2.46729 3.78616 2.36801 2.26168 2.31413 2.25773 2.74928 2.41199 2.85012 
1.9 2.68315 2.68976 2.49651 2.6092 1.93444 1.76386 1.889 1.94334 
1.92953 2.90363 4.67632 2.90064 2.91427 1.96202 2.01041 2.85301 2.79783 
2.83828 1.6071 1.70812 1.68532 1.62654 2.10755 2.09333 1.96656 1.90446 
1.88025 1.70532 3.23204 2.6955 1.75142 1.76202 1.72858 4.90366 4.32578 
4.67925 3.11764 2.15983 1.98271 2.06926 2.20066 2.0747 2.14461 1.8615 
1.73357 1.76925 1.7201 1.87714 2.75128 2.15985 2.35132 2.05054 2.76206 
2.6796 1.77855 3.16429 2.70924 2.66436 2.68213 2.66152 2.63273 2.68484 
2.6845 1.76806 1.89162 1.97845 1.97841 2.28778 3.51778 1.69992 1.70541 
2.68792 2.7625 3.62022 3.61245 3.6041 2.2397 2.11295 3.42826 3.54906 
2.04598 2.032 2.16851 2.28784 1.97611 1.86882 1.76643 2.13419 6 
6 6 5.97397 2.81746 2.87244 2.91472 1.83014 3.59609 3.66488 
1.59135 1.5913 1.75207 1.67939 1.7442 1.77907 1.71322 3.63774 3.87187 
4.00701 4.13575 2.08864 1.86572 1.8881 1.87611 1.96499 1.95543 1.89902 
1.76557 2.8539 2.24077 2.92138 2.49114 1.94287 1.99567 2.95464 2.48987 
2.14996 2.00975 2.63129 2.70451 2.79391 2.80289 2.77673 2.75756 2.75375 
2.78045 2.74843 2.75368 3.86991 3.69657 2.81291 2.81929 4.39689 2.80905 
3.10148 3.21177 3.12287 3.44585 3.45781 6 2.48062 2.72869 2.50357 
2.80235 2.74546 2.65636 2.69388 2.80455 2.82298 1.91298 2.18399 2.01901 
1.85022 1.78678 1.59352 2.11605 1.68663 1.96052 2.29172 1.66426 1.70378 
3.60715 3.64835 1.71968 1.75616 1.7395 1.78914 1.78568 3.73866 3.67354 
3.7177 1.84789 1.92549 1.96618 2.01709 1.74491 1.64785 1.69578 1.65393 
1.64836 1.61645 1.61981 1.61631 2.88801 2.93902 2.94226 2.88285 2.46996 
2.74637 2.33845 1.72362 1.72064 1.70217 1.72439 1.7242 1.87951 1.95326 
1.91098 1.88661 3.25568 3.40246 1.85362 1.82327 1.83662 1.86633 1.8321 
1.8922 1.90135 2.11433 2.15383 2.07485 2.21309 2.16755 2.4797 2.27081 
2.03375 2.11555 2.1248 1.801 2.02878 3.98234 4.07499 1.66178 4.83238 
1.94889 1.80891 1.8518 2.60688 2.54094 2.57157 2.61623 2.55325 2.85695 
2.81703 2.68865 2.65318 2.5925 2.58899 2.43607 2.43263 2.46869 1.84894 
1.82741 1.74987 1.70229 1.69468 1.73713 1.67827 1.76274 1.77912 1.72023 
1.65719 1.61981 1.59426 1.95718 1.72541 1.66312 3.52589 3.55275 1.94192 
1.84077 1.77997 1.82526 1.83814 1.70421 1.60121 1.68174 1.62165 1.66413 
1.70141 1.7192 1.73083 1.70897 1.65785 3.20129 3.54441 3.52723 3.5516 
1.76403 3.02763 2.98962 3.02114 1.64957 1.70447 2.04817 2.00355 2.04619 
1.93877 4.06532 3.84584 1.73695 1.77743 1.70435 1.65029 1.63687 1.6325 
1.64571 1.61025 4.12573 4.08973 4.11117 1.7761 1.74501 3.22549 3.85454 
3.18435 4.82454 1.61943 1.64244 1.81603 1.7258 1.67236 1.95974 2.12193 
2.07432 2.08175 1.9319 1.92736 2.66 2.71008 3.01654 1.77239 1.78653 
1.65091 1.68704 1.74717 1.75915 3.62451 3.48731 5.25608 1.84241 1.8625 
1.84786 1.75713 1.7674 2.77675 1.77738 1.74289 1.72087 1.86687 1.82738 
1.74597 1.63338 3.55288 1.78845 3.55308 3.03734 2.97731 1.73607 1.5939 
1.88707 1.79171 1.74386 1.88802 1.85325 4.25863 4.64209 4.04167 3.78164 
1.80135 1.67008 2.07785 1.87779 2.01778 1.92816 1.9467 1.98393 5.83947 
2.00959 2.10029 2.02646 1.82319 1.69019 1.62247 1.61483 1.68135 1.63982 
1.75348 1.6946 3.64038 2.28629 2.07147 2.37303 1.81479 2.05992 1.60609 
1.80837 1.67537 2.13987 2.15762 2.06392 3.07466 1.8551 2.30635 1.69671 
3.78782 3.73628 6 6 6 1.79792 1.91924 2.0022 1.85817 
2.22701 2.15774 3.37012 2.90893 1.99724 2.43109 2.35488 1.74823 2.19488 
2.07024 1.89585 3.66848 3.47497 1.60818 1.77585 1.69734 1.59448 1.93845 
3.47 3.55997 2.52321 1.79678 2.22511 2.17315 2.22149 2.25816 2.0846 
2.09308 2.01992 2.00625 1.90695 1.66618 1.59422 2.5819 2.65929 3.84171 
3.80202 3.67218 6 6 2.27581 2.23706 2.32583 1.6813 3.3459 
3.4503 4.39494 2.51617 2.40097 2.20681 2.08286 3.10045 3.06769 3.54988 
3.0849 1.6917 1.80027 1.85793 3.80679 3.8707 3.08486 1.79126 1.65204 
1.7064 1.77453 1.99059 2.12488 1.9834 1.90781 2.0278 2.25185 2.33037 
3.42455 2.11566 3.42626 3.42453 3.42443 3.43986 3.77865 1.75777 1.99138 
2.10238 2.19074 3.09887 2.86305 2.49197 2.31105 2.61408 2.75508 2.8634 
2.93657 2.63391 2.19954 1.83356 2.76491 3.33266 2.56467 5.99133 5.28695 
1.59638 1.6073 1.70923 1.83694 1.69119 2.49222 2.5306 2.73524 2.92222 
2.78237 3.06859 1.6639 1.77739 1.75007 1.75101 3.12378 2.55232 2.33653 
2.88682 2.2282 2.84002 2.94542 2.90242 2.68362 2.54834 2.21433 2.22808 
4.62769 1.95361 1.8452 1.92566 3.90642 3.58686 2.07947 2.02544 2.15654 
2.13219 2.25851 2.62402 2.44232 2.48831 1.76706 1.74602 1.99745 1.88096 
5.84388 2.54294 2.60749 2.42724 1.92073 2.30068 2.0683 2.32342 3.61669 
2.32994 2.26081 1.63665 1.90594 2.10684 1.8422 1.76144 1.76568 1.73288 
2.00573 1.71382 3.84231 4.25856 1.68839 1.8163 1.72016 1.7754 5.34539 
1.71702 1.71551 1.61229 1.7517 1.6751 1.88171 1.92051 2.33737 2.58994 
2.60346 1.94159 1.96606 1.94912 2.05888 2.0998 2.13586 2.18929 3.26288 
1.89274 1.62566 1.79307 2.09022 2.08643 1.73241 1.89318 1.84679 1.86125 
1.85507 2.18289 1.61653 2.80981 2.24452 2.2413 2.99418 1.75055 1.78952 
6 2.47585 1.64109 1.6052 2.53144 2.56242 2.45577 2.48084 1.82333 
1.79909 1.8175 2.07832 2.13069 1.93202 1.70686 1.72311 1.7687 1.82344 
1.76299 2.84622 2.75143 2.85637 3.81995 3.01109 1.90545 2.21339 2.09902 
2.31325 1.75118 1.76685 1.59517 1.72234 2.21978 2.19913 2.18099 1.70905 
1.73391 1.7107 1.8518 3.66242 2.664 3.35765 3.45023 1.67901 1.75638 
1.68524 1.85274 1.88954 4.91556 2.69892 1.6675 1.64445 1.7706 1.83425 
1.81299 1.69285 1.73685 2.28526 1.72346 1.65496 2.33667 2.22776 2.21213 
1.69938 2.25357 2.30514 1.59152 1.71189 2.54091 2.50888 2.55572 1.71149 
1.75712 2.01161 1.81798 1.90091 2.11817 2.10047 1.81255 1.77401 1.7797 
1.77482 2.0028 1.91988 1.8598 1.70645 1.85507 2.04913 2.34169 1.62635 
1.65939 6 6 6 2.2225 2.39072 2.3609 2.27954 2.25325 
2.27778 2.38688 1.61214 1.62445 2.00449 2.02522 1.62079 1.68842 1.63767 
1.87851 1.82294 1.77172 1.64918 2.29585 2.2041 2.11931 2.2592 2.26548 
2.5122 1.70987 1.90137 2.40348 2.63033 1.60741 1.65518 1.6082 1.63821 
1.6804 1.60445 2.05637 1.99559 1.93058 1.68663 1.82488 1.69535 2.11367 
2.04587 1.71777 1.69383 1.67983 1.65877 1.67011 1.69387 1.7109 2.71466 
2.4921 2.50305 1.73595 2.35179 2.39739 2.50873 3.52196 4.16946 3.25014 
1.7848 1.83633 4.47048 1.68341 1.65405 1.62352 1.65356 1.68482 1.80546 
3.00704 1.71647 1.85757 1.60198 1.7903 1.72104 1.73761 1.77313 1.7731 
1.77468 1.68777 1.76887 1.75786 1.65452 1.60762 2.11517 1.7237 1.92477 
1.86574 1.86168 1.88296 1.99086 1.99561 2.62117 2.29028 2.13185 2.23519 
2.13212 2.13902 2.15436 2.14135 2.39149 1.89599 1.81865 2.33929 2.41477 
1.69387 1.68616 1.65975 2.14216 2.17026 2.14648 2.21645 2.07273 1.80939 
2.00273 1.81672 3.17596 3.1816 1.7384 2.86929 2.98546 3.11454 2.78821 
2.75019 2.7651 2.84254 2.78717 2.80244 1.66894 1.64004 2.89289 1.98292 
6 6 1.62251 2.43974 2.4466 2.47974 2.47651 2.69998 2.46612 
1.7217 1.66837 1.93303 1.69679 1.97631 1.968 1.61028 1.8647 1.91445 
1.76209 1.76331 1.84441 1.81399 1.71879 1.75002 1.6452 1.64361 1.71629 
1.85904 1.83298 1.75629 1.74514 1.66778 1.60274 2.00102 2.01785 1.98912 
1.74544 1.85599 1.66843 1.74119 1.59585 1.62668 2.24217 2.10156 2.12686 
2.0892 2.06754 2.06997 4.9147 5.06778 4.8211 1.87936 1.80714 5.04565 
3.95122 3.80945 1.90073 1.70641 1.84695 1.67589 1.61132 1.71129 2.09028 
1.98232 1.99817 2.04732 2.04827 1.99975 1.98517 2.12053 4.63598 4.6433 
1.82876 2.09733 2.49628 2.24392 2.52257 1.60639 3.99059 2.17553 2.1795 
2.10075 1.64647 1.66731 2.20356 2.15751 2.4341 2.49851 2.54234 2.58893 
2.52221 1.69919 2.61807 2.6438 2.6696 3.14943 2.95932 2.72022 1.59972 
3.46661 1.79889 1.78752 3.77626 3.6779 3.88552 3.87055 3.63381 3.68302 
3.83278 3.77038 3.42218 6 1.64227 1.705 3.56022 3.25567 3.63139 
3.13014 2.76615 2.8164 2.42334 2.73101 1.84572 3.49769 2.15718 1.9375 
3.21545 1.89369 1.88861 1.87841 1.71393 1.77339 1.74861 1.7863 1.69005 
2.05286 2.13683 1.9232 1.77355 1.62094 1.76834 1.74367 1.98241 2.17487 
1.72556 1.88069 1.62348 1.62863 1.87689 1.91039 1.9801 2.06644 1.73591 
2.13147 2.23475 2.30845 2.20148 1.75398 1.74388 1.695 1.59161 1.75223 
2.04192 2.03064 2.05147 2.07303 5.0118 5.08783 2.08583 4.93417 5.00903 
4.92819 3.27584 3.58096 1.65596 1.70279 1.73967 1.71779 1.72147 2.23663 
2.19851 2.4351 2.16713 3.69192 4.07483 4.63774 4.66965 4.67241 1.71724 
5.35534 2.00952 2.09282 2.15434 2.19457 4.25529 4.20368 2.54835 1.60602 
1.63977 1.67992 1.70082 1.71638 1.64978 1.85243 1.95904 2.26036 2.35219 
2.26624 2.27193 2.37151 1.65521 1.71757 3.59128 3.53977 3.21714 3.48302 
3.47177 1.78239 6 6 5.57202 4.37078 2.06858 1.70119 1.9944 
1.93283 1.66788 1.73736 1.80741 1.88819 1.8976 2.40789 1.67947 1.6376 
1.83205 1.90644 1.80818 1.6703 1.65499 1.9066 1.64295 1.67104 1.72139 
1.62819 1.95358 2.01036 1.98789 1.97649 1.7788 1.60636 1.69656 2.21838 
2.04883 2.02149 2.12035 1.67575 1.63297 2.94936 1.91412 1.95464 1.94436 
4.88451 4.74965 1.91911 4.61234 1.64042 1.80711 1.63649 1.61894 1.65533 
1.74297 2.16576 2.11915 2.11379 2.10084 2.06008 2.03092 1.62115 1.67733 
1.62354 1.6261 1.9336 1.95048 1.95263 1.9597 3.78109 4.15649 3.10475 
1.60984 1.62944 1.6159 1.67734 1.70387 1.81265 1.77016 1.89834 1.73641 
1.67053 3.18389 2.99163 3.02521 2.99987 6 6 6 3.2669 
2.1883 2.1075 2.00804 1.92531 1.62485 1.71791 1.87297 1.72776 1.72599 
1.71571 1.73218 1.93269 2.13394 1.87145 1.8072 1.65553 1.64503 1.64482 
1.63487 1.72153 1.64571 1.77011 1.68292 1.92426 1.68126 1.73822 1.66355 
1.70362 2.04461 1.6159 1.84032 1.83069 1.79533 1.71588 1.6253 1.74928 
1.74461 1.68529 1.74822 1.61 1.59156 1.82419 2.12348 2.30972 2.01896 
1.8825 1.61096 1.8017 1.66643 1.68409 1.59667 1.6901 1.7136 2.27427 
2.33458 1.94668 2.13211 1.71477 1.62697 1.75123 1.78788 1.99821 1.72199 
1.93875 1.84512 1.70753 1.71296 2.13998 1.90455 1.80916 4.33564 2.65255 
2.6927 1.71415 1.61696 1.95524 1.77654 1.6818 1.67103 2.06525 1.99852 
1.93068 1.9336 1.94245 1.84678 1.8891 1.62525 1.98085 1.99694 1.96856 
1.98509 2.03528 2.00956 1.59243 1.61592 2.05477 1.70798 2.10401 1.99263 
2.17355 2.04028 2.12028 2.35266 2.40063 3.64137 2.33367 2.33882 2.42543 
2.42929 2.38937 1.6863 1.67908 2.38278 2.23311 2.30638 2.2107 1.91551 
2.13253 2.01384 2.05011 1.94543 1.94613 2.1001 2.01153 2.65389 2.80319 
2.79224 2.73054 2.71225 2.70709 2.73742 2.66826 2.62619 2.61957 1.74473 
1.72463 2.94528 2.93766 2.94545 6 5.99945 4.69873 4.71058 2.32636 
2.34953 2.35977 2.18093 2.14694 2.27791 4.25113 3.63509 1.71283 1.83617 
1.79306 1.81018 1.82037 1.87694 1.62693 1.63287 1.70272 1.73546 1.80827 
1.67605 1.64604 1.67014 1.68437 1.64277 1.6134 1.67214 1.8024 1.68142 
1.72436 1.66636 1.90114 2.13879 2.15272 2.12692 1.64608 1.62524 2.06424 
1.59344 1.77149 2.02797 2.02718 1.62768 1.68989 1.64451 1.65088 1.74042 
1.75577 1.74736 1.68827 1.7222 1.64796 1.64909 1.63793 1.59847 1.98027 
1.87388 1.6414 1.66387 1.90639 2.10015 2.16984 2.24061 3.67031 3.45953 
2.59463 2.61222 2.66521 2.58359 2.68081 1.65831 1.62619 1.60732 1.59136 
2.06976 1.81495 1.83139 1.81815 1.80159 1.84375 1.86706 1.59487 2.02687 
2.0958 2.08695 2.34266 2.69956 2.49459 2.40863 1.6966 1.77742 2.62233 
2.62712 2.63032 2.62977 2.63752 2.63888 2.61597 2.60421 2.57646 2.56373 
2.56356 2.52751 1.5915 1.63334 1.67924 1.75565 2.96013 2.97673 4.62467 
4.8969 1.91868 4.35494 1.89857 1.90108 1.98388 1.91871 2.06697 2.11165 
2.80584 2.02436 1.99955 1.8719 1.73211 1.70125 1.74763 1.70303 1.78928 
1.68078 1.65248 1.77455 1.77362 1.79371 1.7091 1.62209 2.27519 2.25151 
1.92631 2.14745 2.04857 2.2221 2.11053 2.18124 2.21785 2.14754 2.09873 
3.47005 3.45136 2.69779 2.00613 3.63764 3.67553 2.71099 2.76531 2.84214 
2.88891 4.61915 4.38434 1.89148 1.93722 1.91939 1.95382 1.88231 1.8985 
1.76983 1.90553 2.62481 2.56442 2.65556 2.68001 2.7375 2.87534 3.18962 
2.91117 2.4642 2.44947 2.43681 2.41929 2.56124 3.99081 3.78475 3.33004 
5.3435 5.29771 1.7329 2.7112 2.14682 3.09792 1.92692 1.94205 2.11413 
2.16894 2.07288 1.73259 1.75718 1.76318 3.00555 3.04068 1.92264 1.92174 
1.92294 1.92894 4.45071 4.3834 1.93319 1.93492 2.01801 1.72947 1.72846 
1.59368 1.5922 1.71931 1.74296 1.59441 2.53367 2.29805 2.33206 2.38036 
2.37539 2.33865 1.8785 3.60631 3.54092 3.46558 1.67226 1.68994 3.34718 
3.40876 2.90105 2.89333 4.57407 3.90697 2.93172 4.90172 4.40426 3.61236 
2.97541 2.98742 4.41878 2.97337 2.98335 1.60748 1.83333 1.87539 1.87606 