# vtk DataFile Version 4.0
vtk output
ASCII
DATASET POLYDATA
FIELD FieldData 7
irad 1 1 float
0.8 
srad 1 1 float
4 
spacing 3 1 float
0.625413 0.625413 0.625282 
liveth 1 1 float
-90 
seedth 1 1 float
-70 
AV_classification_dnn_model_name 1 1 string
Model_v03_all_points.hdf5

vessel_sizing_dnn_model_name 1 1 string
Model_v01_df93962_best.hdf5

POINTS 1844 float
-20.4887 -88.1462 -206.891 -41.8037 -69.6185 -198.152 -41.3654 -69.8697 -197.961 
-42.2674 -69.3463 -198.33 -42.6669 -69.0838 -198.48 -37.2934 -196.606 -189.688 
-37.6971 -196.56 -189.307 -55.3519 -70.5549 -189.184 -38.241 -196.411 -188.811 
-56.3441 -72.0975 -188.277 -55.8953 -71.4752 -188.786 -29.2752 -101.343 -186.771 
-25.796 -87.3519 -186.522 -29.4311 -100.786 -186.065 -29.0799 -90.9218 -186.15 
-26.1775 -87.3349 -185.575 -55.4703 -104.752 -184.352 -27.0091 -68.6852 -184.326 
-26.8768 -69.2333 -184.163 -27.2738 -67.6679 -184.726 -27.4224 -67.2192 -184.977 
-27.1398 -68.1494 -184.512 -31.3926 -85.1281 -183.858 -63.4474 -92.0045 -182.731 
-63.0953 -92.3008 -182.318 -23.1043 -103.487 -180.577 -23.4372 -103.076 -180.754 
-62.5558 -92.7872 -181.629 -42.0414 -87.4581 -180.719 -59.4337 -184.856 -179.42 
-59.3723 -185.235 -179.728 -59.9778 -183.933 -179.398 -22.5427 -105.279 -179.465 
-22.6402 -104.596 -179.914 -22.85 -103.909 -180.352 -36.658 -99.1125 -179.319 
-41.5143 -88.9066 -179.717 -41.8424 -88.0656 -180.276 -41.9255 -87.835 -180.443 
-41.6793 -88.4812 -180.002 -59.4617 -184.461 -179.095 -59.4527 -184.056 -178.768 
-59.3308 -183.246 -178.147 -59.4068 -183.656 -178.455 -22.3273 -107.211 -178.215 
-22.4892 -105.744 -179.164 -22.3734 -106.802 -178.481 -22.439 -106.202 -178.872 
-56.6352 -104.088 -178.627 -56.7008 -103.671 -178.142 -41.0838 -90.7889 -178.409 
-41.1965 -90.0271 -178.959 -41.2985 -89.579 -179.268 -44.7383 -186.594 -177.28 
-59.2367 -182.845 -177.861 -59.1278 -182.441 -177.582 -58.7461 -182.056 -177.281 
-58.7974 -181.624 -177.051 -37.0311 -121.307 -177.015 -22.2451 -114.235 -177.689 
-22.1382 -108.479 -177.376 -22.0364 -108.991 -177.037 -22.2292 -107.939 -177.733 
-56.7285 -103.255 -177.755 -56.6914 -102.436 -177.235 -62.7058 -94.9319 -177.355 
-62.2548 -95.2212 -177.205 -61.7858 -95.4799 -177.056 -61.3144 -95.7299 -176.902 
-41.038 -91.3408 -177.999 -41.0181 -91.7178 -177.704 -41.0007 -92.2266 -177.287 
-33.3583 -91.2714 -176.949 -32.9776 -90.9478 -177.071 -32.1686 -90.3451 -177.191 
-32.573 -90.6348 -177.145 -31.2279 -89.7229 -177.277 -45.0654 -185.634 -176.566 
-45.366 -184.766 -175.841 -45.253 -185.112 -176.148 -59.5029 -181.064 -176.595 
-58.8512 -181.154 -176.81 -58.8356 -180.695 -176.593 -58.7882 -179.748 -176.129 
-58.8534 -180.242 -176.369 -58.7473 -179.317 -175.798 -38.1683 -121.748 -175.862 
-37.46 -121.456 -176.684 -37.8091 -121.598 -176.278 -56.7009 -101.496 -176.659 
-44.0346 -98.4124 -175.958 -59.634 -96.6356 -176.094 -73.7319 -95.0948 -176.822 
-73.0029 -95.2427 -176.254 -40.9739 -92.8801 -176.723 -40.5668 -93.4223 -175.994 
-34.7547 -92.5666 -176.069 -35.0536 -92.8699 -175.778 -34.4344 -92.2578 -176.335 
-33.7369 -91.6056 -176.787 -34.1004 -91.936 -176.574 -45.4123 -184.352 -175.277 
-45.689 -183.735 -174.946 -59.7932 -180.241 -175.482 -59.3975 -179.477 -174.786 
-59.6183 -179.88 -175.109 -58.7788 -179.044 -175.343 -68.8906 -127.46 -174.979 
-68.2455 -127.421 -175.032 -67.6521 -127.44 -175.115 -38.7314 -121.995 -175.25 
-21.1267 -112.141 -174.85 -67.7762 -110.667 -174.845 -68.5741 -110.289 -175.521 
-68.1797 -110.479 -175.178 -13.3646 -103.613 -174.548 -39.4478 -101.226 -174.49 
-39.0943 -101.657 -174.47 -57.6893 -97.6606 -174.876 -58.143 -97.4027 -175.143 
-57.2244 -97.9137 -174.609 -58.897 -96.9788 -175.594 -58.516 -97.1902 -175.363 
-40.1654 -95.4262 -174.716 -40.153 -94.9249 -174.975 -40.1945 -94.4342 -175.204 
-40.2852 -93.9765 -175.435 -35.8681 -93.6604 -174.704 -35.6122 -93.4374 -175.108 
-35.3378 -93.1646 -175.455 -45.3977 -183.598 -174.125 -45.3673 -183.194 -173.528 
-60.5192 -179.981 -174.459 -58.7632 -178.342 -173.713 -58.9678 -178.713 -174.097 
-59.1786 -179.088 -174.443 -64.1612 -126.389 -173.785 -63.7692 -126.213 -173.554 
-21.2451 -112.922 -173.837 -34.0194 -107.221 -173.535 -35.3415 -105.961 -173.898 
-34.9664 -106.322 -173.795 -34.3819 -106.878 -173.634 -36.0957 -105.209 -174.103 
-36.4899 -104.794 -174.199 -35.7091 -105.597 -173.999 -37.4492 -103.709 -174.355 
-36.8689 -104.379 -174.273 -13.391 -103.491 -173.526 -13.3824 -103.549 -174.034 
-38.7178 -102.124 -174.446 -38.3522 -102.581 -174.423 -37.8741 -102.991 -173.35 
-37.9825 -103.05 -174.396 -55.3116 -98.7672 -173.63 -55.7321 -98.6065 -173.821 
-54.8925 -98.9096 -173.437 -56.4374 -98.3015 -174.177 -56.8384 -98.1183 -174.384 
-40.3019 -96.0956 -174.019 -36.1263 -93.8084 -174.236 -68.7387 -89.1089 -173.714 
-68.2933 -89.4458 -173.743 -70.3335 -87.8834 -173.621 -69.8867 -88.253 -173.664 
-69.1861 -88.7777 -173.694 -45.2343 -182.303 -172.238 -45.3247 -182.78 -172.943 
-58.4678 -177.831 -173.136 -58.2395 -177.479 -172.734 -57.989 -177.142 -172.316 
-63.1417 -126.002 -173.244 -62.2945 -125.688 -172.798 -61.4579 -125.36 -172.323 
-61.8452 -125.54 -172.573 -42.3391 -122.672 -172.436 -21.3686 -113.437 -173.089 
-21.4431 -113.759 -172.601 -13.4164 -103.412 -173.024 -13.44 -103.329 -172.52 
-38.3284 -102.333 -172.909 -48.6408 -100.278 -172.146 -54.2139 -99.1447 -173.146 
-53.4737 -99.3451 -172.845 -45.1651 -182.021 -171.817 -45.0656 -181.793 -171.384 
-61.076 -125.1 -171.996 -60.0617 -124.405 -171.137 -60.4523 -124.66 -171.43 
-59.6664 -124.135 -170.854 -43.0336 -122.66 -171.586 -43.343 -122.659 -171.178 
-42.7164 -122.659 -171.986 -21.3365 -114.29 -171.294 -21.4509 -114.103 -171.854 
-13.4884 -103.095 -171.52 -13.5033 -102.947 -171.025 -13.4681 -103.217 -172.02 
-48.0818 -99.5502 -172.046 -48.227 -98.9823 -171.726 -47.1961 -99.1778 -172.029 
-48.0581 -98.4015 -171.334 -41.797 -193.135 -170.44 -41.4034 -192.912 -169.95 
-44.692 -181.134 -169.912 -44.8256 -181.331 -170.411 -57.3975 -176.419 -170.458 
-55.8662 -164.47 -169.797 -59.2675 -123.845 -170.598 -58.8558 -123.542 -170.379 
-43.9208 -122.652 -170.258 -43.618 -122.657 -170.777 -20.9309 -114.44 -170.257 
-20.9756 -114.283 -170.547 -13.4988 -102.795 -170.521 -13.4204 -102.486 -169.675 
-47.7515 -97.8675 -170.675 -28.7223 -87.9518 -170.219 -40.7494 -192.712 -169.459 
-44.4467 -180.744 -168.953 -44.5591 -180.929 -169.407 -57.1348 -175.949 -168.993 
-57.2925 -176.166 -169.485 -56.9793 -175.743 -168.496 -85.2376 -136.853 -168.926 
-44.3795 -122.574 -169.46 -20.6501 -114.329 -169.243 -20.4818 -114.101 -168.622 
-29.3319 -88.2598 -169.442 -29.5995 -88.5948 -169.112 -44.3072 -180.502 -168.355 
-44.1913 -180.283 -167.793 -44.0928 -180.082 -167.258 -56.6755 -175.339 -167.497 
-56.8262 -175.541 -167.997 -44.2162 -122.558 -167.738 -44.214 -122.595 -168.268 
-37.156 -120.668 -168.41 -36.0168 -117.582 -167.551 -36.2779 -116.889 -167.508 
-36.5337 -115.436 -167.348 -36.43 -116.431 -167.5 -20.0927 -113.904 -167.606 
-20.2193 -114.061 -168.068 -56.8741 -112.181 -167.521 -44.6997 -92.6584 -167.984 
-45.6249 -91.2731 -168.044 -45.3256 -91.7399 -168.002 -45.0122 -92.1987 -167.983 
-45.9245 -90.8068 -168.104 -46.3491 -89.9744 -168.354 -68.3771 -74.6169 -167.501 
-68.27 -75.1826 -167.667 -38.4624 -66.2889 -168.03 -38.3603 -65.7462 -167.96 
-38.2653 -65.2033 -167.893 -59.4796 -181.034 -166.593 -43.9905 -179.884 -166.675 
-56.416 -174.971 -166.688 -56.0806 -174.895 -166.11 -50.4734 -166.401 -166.418 
-36.4995 -133.568 -166.682 -36.4159 -134.097 -166.82 -36.5626 -133.033 -166.503 
-44.165 -122.466 -166.836 -72.1514 -118.001 -166.656 -70.8942 -117.033 -166.59 
-71.3142 -117.332 -166.652 -71.7362 -117.632 -166.681 -70.4529 -116.762 -166.49 
-35.5113 -114.443 -166.887 -19.8681 -113.685 -166.845 -19.8645 -113.227 -166.29 
-40.2482 -96.0036 -166.229 -30.5832 -89.9574 -166.759 -55.4895 -175.074 -165.135 
-55.7338 -175.163 -165.588 -60.1509 -171.84 -165.077 -19.8602 -112.764 -165.546 
-56.7735 -105.585 -165.041 -55.9015 -103.665 -165.001 -40.0601 -96.074 -165.323 
-26.5166 -70.686 -165.512 -26.572 -71.0143 -165.126 -26.4564 -70.347 -165.947 
-45.1145 -68.9874 -165.894 -47.909 -66.1841 -165.605 -55.3039 -174.84 -164.799 
-54.8824 -174.123 -164.016 -54.7691 -173.714 -163.724 -59.3509 -171.594 -164.707 
-89.8872 -159.103 -164.47 -39.8518 -96.1581 -164.226 -39.9534 -96.115 -164.775 
-39.7587 -96.2031 -163.676 -43.1902 -179.121 -163.303 -54.6519 -173.304 -163.415 
-54.6607 -172.518 -163.044 -54.3338 -172.693 -162.834 -54.5236 -171.767 -162.571 
-53.9491 -164.344 -162.839 -35.4862 -103.742 -162.562 -35.0796 -104.139 -162.462 
-36.9378 -102.234 -162.944 -36.5257 -102.683 -162.842 -35.9729 -103.256 -162.695 
-37.3134 -101.804 -163.036 -37.6489 -101.399 -163.12 -37.9655 -101.002 -163.198 
-38.8663 -99.7614 -163.42 -38.259 -100.613 -163.271 -38.5589 -100.208 -163.346 
-39.1554 -99.3066 -163.485 -39.6783 -96.2511 -163.125 -39.6147 -96.3051 -162.571 
-63.5428 -95.3281 -162.712 -54.4463 -171.178 -162.288 -54.0928 -170.16 -161.692 
-54.2463 -170.7 -161.945 -53.8854 -169.65 -161.406 -88.0021 -158.839 -161.565 
-87.4825 -158.705 -161.252 -74.0306 -124.169 -161.428 -74.0693 -124.606 -161.758 
-39.9583 -120.933 -161.336 -34.6985 -104.504 -162.389 -34.0878 -105.078 -162.333 
-33.4613 -105.648 -162.31 -55.6878 -99.8828 -161.484 -57.455 -98.8196 -161.921 
-56.5501 -99.4565 -161.754 -57.0144 -99.1287 -161.887 -56.1431 -99.6539 -161.731 
-59.1944 -97.477 -162.141 -58.7855 -97.797 -162.092 -58.2083 -98.2421 -162.041 
-58.1018 -98.3272 -162.012 -60.4399 -96.4854 -162.275 -39.5623 -96.4033 -161.773 
-61.6967 -95.3675 -162.398 -61.1414 -95.9047 -162.328 -62.2035 -94.7069 -162.392 
-62.3425 -94.0573 -162.216 -62.4731 -92.949 -162.035 -62.4309 -93.2898 -162.068 
-62.5303 -92.2445 -162.069 -39.8391 -90.3126 -162.029 -39.9013 -89.7404 -161.759 
-53.7101 -169.211 -161.185 -53.5362 -168.746 -160.977 -53.3001 -168.162 -160.688 
-52.995 -167.44 -160.308 -52.8082 -167.001 -160.041 -86.4552 -158.174 -160.818 
[...]
POINT_DATA 1844
SCALARS scale float
LOOKUP_TABLE default
3.15962 2.80075 2.74658 2.75502 2.70231 3.10364 3.08125 3.65311 2.96105 
3.70437 3.79364 3.85238 5.22021 3.80246 5.47355 4.97574 2.91345 3.19138 
3.00979 3.31521 3.28272 3.31424 3.27697 3.98871 4.38267 2.84924 2.71551 
4.83941 2.78999 4.30681 4.41996 4.98783 2.84634 2.92455 2.9309 2.99271 
2.84708 2.68529 2.69422 2.78539 4.17629 4.03968 3.76798 3.90412 2.79741 
2.84512 2.82391 2.83897 2.70505 2.86851 2.87839 2.88208 2.89436 2.68222 
3.63861 3.50924 3.11312 3.14965 3.2158 2.72342 2.73103 2.69112 2.759 
3.07645 3.623 2.76585 2.7018 2.69154 2.67953 2.8173 2.79195 2.77577 
2.79287 2.79654 2.79805 2.8024 2.69151 2.81233 2.94691 2.91133 3.68042 
3.18206 3.14123 3.07466 3.16177 3.03311 3.3461 3.46451 3.45459 3.78616 
2.74928 2.85012 2.68315 2.68976 2.90363 4.67632 2.90064 2.91427 2.85301 
2.79783 2.83828 3.23204 2.6955 4.90366 4.32578 4.67925 3.11764 2.75128 
2.76206 2.6796 3.16429 2.70924 2.68213 2.68484 2.6845 3.51778 2.68792 
2.7625 3.62022 3.61245 3.6041 3.42826 3.54906 6 6 6 
5.97397 2.81746 2.87244 2.91472 3.59609 3.66488 3.63774 3.87187 4.00701 
4.13575 2.8539 2.92138 2.95464 2.70451 2.79391 2.80289 2.77673 2.75756 
2.75375 2.78045 2.74843 2.75368 3.86991 3.69657 2.81291 2.81929 4.39689 
2.80905 3.10148 3.21177 3.12287 3.44585 3.45781 6 2.72869 2.80235 
2.74546 2.69388 2.80455 2.82298 3.60715 3.64835 3.73866 3.67354 3.7177 
2.88801 2.93902 2.94226 2.88285 2.74637 3.25568 3.40246 3.98234 4.07499 
4.83238 2.85695 2.81703 2.68865 3.52589 3.55275 3.20129 3.54441 3.52723 
3.5516 3.02763 2.98962 3.02114 4.06532 3.84584 4.12573 4.08973 4.11117 
3.22549 3.85454 3.18435 4.82454 2.71008 3.01654 3.62451 3.48731 5.25608 
2.77675 3.55288 3.55308 3.03734 2.97731 4.25863 4.64209 4.04167 3.78164 
5.83947 3.64038 3.07466 3.78782 3.73628 6 6 6 3.37012 
2.90893 3.66848 3.47497 3.47 3.55997 3.84171 3.80202 3.67218 6 
6 3.3459 3.4503 4.39494 3.10045 3.06769 3.54988 3.0849 3.80679 
3.8707 3.08486 3.42455 3.42626 3.42453 3.42443 3.43986 3.77865 3.09887 
2.86305 2.75508 2.8634 2.93657 2.76491 3.33266 5.99133 5.28695 2.73524 
2.92222 2.78237 3.06859 3.12378 2.88682 2.84002 2.94542 2.90242 2.68362 
4.62769 3.90642 3.58686 5.84388 3.61669 3.84231 4.25856 5.34539 3.26288 
2.80981 2.99418 6 2.84622 2.75143 2.85637 3.81995 3.01109 3.66242 
3.35765 3.45023 4.91556 2.69892 6 6 6 2.71466 3.52196 
4.16946 3.25014 4.47048 3.00704 3.17596 3.1816 2.86929 2.98546 3.11454 
2.78821 2.75019 2.7651 2.84254 2.78717 2.80244 2.89289 6 6 
2.69998 4.9147 5.06778 4.8211 5.04565 3.95122 3.80945 4.63598 4.6433 
3.99059 3.14943 2.95932 2.72022 3.46661 3.77626 3.6779 3.88552 3.87055 
3.63381 3.68302 3.83278 3.77038 3.42218 6 3.56022 3.25567 3.63139 
3.13014 2.76615 2.8164 2.73101 3.49769 3.21545 5.0118 5.08783 4.93417 
5.00903 4.92819 3.27584 3.58096 3.69192 4.07483 4.63774 4.66965 4.67241 
5.35534 4.25529 4.20368 3.59128 3.53977 3.21714 3.48302 3.47177 6 
6 5.57202 4.37078 2.94936 4.88451 4.74965 4.61234 3.78109 4.15649 
3.10475 3.18389 2.99163 3.02521 2.99987 6 6 6 3.2669 
4.33564 2.6927 3.64137 2.80319 2.79224 2.73054 2.71225 2.70709 2.73742 
2.94528 2.93766 2.94545 6 5.99945 4.69873 4.71058 4.25113 3.63509 
3.67031 3.45953 2.68081 2.69956 2.96013 2.97673 4.62467 4.8969 4.35494 
2.80584 3.47005 3.45136 2.69779 3.63764 3.67553 2.71099 2.76531 2.84214 
2.88891 4.61915 4.38434 2.68001 2.7375 2.87534 3.18962 2.91117 3.99081 
3.78475 3.33004 5.3435 5.29771 2.7112 3.09792 3.00555 3.04068 4.45071 
4.3834 3.60631 3.54092 3.46558 3.34718 3.40876 2.90105 2.89333 4.57407 
3.90697 2.93172 4.90172 4.40426 3.61236 2.97541 2.98742 4.41878 2.97337 
2.98335 3.33032 3.11187 3.4841 3.31601 3.19361 5.56574 5.79876 4.93563 
3.27679 3.1907 3.21207 4.16127 2.94789 3.4674 2.90067 2.85325 2.81064 
2.76365 2.69048 3.46195 3.50146 4.00886 3.73066 2.69524 2.69523 2.84183 
2.71346 3.14965 3.15559 3.22054 3.30141 3.25864 3.51169 3.65043 3.0957 
4.09921 3.93935 2.92485 5.84496 2.9229 3.06682 3.09918 3.10203 3.05552 
3.40533 3.41612 3.47561 3.53841 3.74471 4.01066 3.84882 3.72481 2.84521 
3.40627 6 2.85091 2.81483 6 3.03242 2.94061 3.01538 3.00674 
3.06932 3.04342 3.13917 3.50166 3.49203 3.4821 3.47665 4.15495 4.34295 
4.76126 4.70658 3.05533 2.88845 3.04412 3.25008 3.18167 3.34814 3.44112 
3.57497 3.50036 3.50367 3.54565 3.46867 2.93819 2.77525 2.85747 2.95774 
2.9522 2.93363 2.94613 2.96799 2.97502 2.95681 2.98638 4.50391 4.45783 
3.26744 3.25489 3.27081 3.27712 3.30901 3.71356 3.51139 4.34237 4.36308 
2.88941 3.64065 3.76024 3.85328 3.91296 3.74613 3.73138 3.55913 2.68105 
3.09622 2.71093 3.07411 3.20088 3.17204 3.22432 3.23824 3.22493 3.24108 
3.23796 3.23316 4.34942 4.3756 5.42355 4.99797 3.02035 3.29718 3.08819 
3.93573 3.86818 3.87786 3.89474 3.88787 3.74818 2.90681 2.84295 2.88545 
3.07329 3.12934 3.11046 2.87756 5.50304 5.39028 2.97178 2.98629 2.98896 
2.98916 5.61427 5.14667 5.87381 3.79733 3.7605 3.7653 3.77064 3.78101 
3.78806 5.52163 5.57118 4.04644 4.24215 4.38666 3.8975 3.69361 3.56308 
3.53872 3.34121 3.05124 3.00098 3.05351 4.03678 4.15237 3.94789 3.75615 
3.75516 3.69213 3.72049 3.74014 3.77866 3.86544 3.59355 4.12655 5.09802 
3.90001 3.81541 5.05196 4.05108 2.9256 2.89723 2.89879 2.87676 2.9078 
2.98451 2.97893 2.95581 2.78183 2.96983 2.78526 2.71687 3.75042 4.06392 
3.51908 3.10569 3.10383 3.09006 3.27969 3.22349 3.15297 3.25367 2.70553 
2.76552 6 2.81282 2.79536 3.13179 3.11739 2.70961 3.43485 3.02809 
3.37071 3.22613 3.05871 2.98144 2.85701 2.89981 2.81859 2.83087 2.9358 
2.88922 2.953 2.95205 2.93829 2.85333 2.77644 2.84609 2.94989 3.16875 
3.21438 2.69245 2.83714 2.94416 4.33286 3.09928 2.7755 2.84923 3.77143 
3.06113 3.17125 2.98499 3.47839 2.99875 2.99004 2.99743 2.9844 3.2231 
2.75671 2.70962 2.74804 4.28918 3.03611 3.06479 3.08647 2.98346 3.1165 
3.56152 3.51095 5.33079 2.92057 2.86442 2.71595 2.80632 2.70283 2.69415 
2.82022 4.20039 4.53016 4.90961 3.11094 3.32166 3.0656 3.0382 3.4549 
2.76567 2.73484 3.10967 3.19031 3.19795 2.88945 2.94559 2.87244 2.84487 
2.87973 2.86676 2.83171 2.85963 2.85557 2.86725 2.87489 2.94538 2.89413 
2.70849 3.07555 2.98932 3.01729 3.02581 3.0442 5.74936 4.18181 3.69748 
2.81787 2.78637 2.75485 3.08621 3.18122 3.14021 2.79812 2.78397 2.79036 
3.06021 3.08189 3.05793 3.02685 3.05081 3.12637 5.99999 5.72657 5.71545 
5.86123 5.58493 3.0153 6 2.76641 4.74898 4.42865 2.91278 2.86052 
2.82163 2.99029 3.00131 3.00188 2.96125 5.88227 3.43271 3.48081 3.29891 
3.23121 3.17864 3.16845 3.15503 5.85659 2.79369 2.90522 3.0748 2.79323 
2.76607 2.72287 2.84574 2.81914 2.90516 2.96471 4.80561 5.60092 3.69114 
2.99432 3.58697 2.8491 3.53665 2.9292 3.07852 3.11483 3.07758 3.10839 
2.96822 3.00156 2.94661 2.91241 3.08893 3.32845 3.59418 6 5.94808 
6 3.45536 3.62483 4.67669 5.24857 2.94888 3.0114 2.75714 2.85118 
2.81366 3.95654 3.56641 3.8583 3.84409 3.70473 3.71572 3.74805 3.59417 
3.59495 3.59411 3.59414 2.96192 6 6 6 2.69772 5.60829 
5.53736 2.69924 2.9587 3.13004 3.34562 4.7348 4.92463 4.93006 4.85734 
3.72788 4.35548 4.50265 3.76669 3.81735 3.91812 3.9726 3.59155 3.79335 
4.00443 3.93688 3.94866 4.0078 4.00599 4.0183 3.98682 3.94854 3.96978 
3.99498 3.9981 4.04279 4.12104 4.19608 4.08822 4.20653 4.19631 3.885 
3.70223 3.5066 3.40657 3.48145 3.31329 3.50171 3.34737 3.60352 3.15459 
3.06954 5.8691 6 3.04866 5.74617 5.71679 5.67663 4.8365 3.8239 
2.67841 2.76495 2.87442 2.90168 4.05923 3.98009 3.94544 3.93507 3.88417 
3.15524 3.15855 3.10512 2.82881 2.98593 2.87772 2.91059 3.95423 3.94441 
3.90818 3.94367 4.00476 2.69067 4.07705 4.03079 2.81945 2.87274 2.80502 
3.01237 2.88556 4.15712 2.80594 3.97952 4.34228 4.48991 4.80486 4.32995 
4.88256 4.81055 5.051 5.14741 4.9615 3.05643 3.16969 3.1312 5.3678 
3.23761 3.18525 3.11193 5.70654 5.59163 2.97744 5.73257 5.75449 5.74372 
5.18549 4.96156 2.84354 3.00937 3.0966 3.13772 2.94127 2.81113 2.92259 
2.75747 3.04489 2.84747 2.72415 3.21479 3.29573 3.16104 3.40806 2.92343 
2.95442 2.92275 2.91251 2.9676 2.98556 5.55478 5.5535 2.85949 5.24942 
5.3751 5.33353 3.15998 3.20459 3.17107 2.78915 2.89767 3.13399 3.06716 
3.07521 3.07656 4.50232 5.53766 5.87778 5.82038 5.31131 5.35256 2.69433 
4.85203 5.19873 5.49152 4.93766 4.18823 4.44657 4.504 2.91654 2.77185 
5.82977 2.73638 3.14623 3.24228 3.34247 3.56467 3.54145 3.5168 3.67377 
2.85141 2.758 2.74602 4.30966 4.22573 2.9982 2.95349 2.91473 2.84503 
2.82141 4.63292 4.76067 4.8013 4.71296 4.50899 3.77252 3.95807 3.87813 
4.0504 4.27563 4.19407 4.37982 4.20323 4.1765 4.13516 4.23223 4.24366 
4.29335 4.53692 4.49142 3.13627 3.20016 2.96762 3.12221 2.96395 2.79267 
2.84353 2.81096 2.82467 2.71706 4.15342 4.08167 3.24135 3.241 3.24585 
3.25314 3.2453 3.10226 3.14932 4.51868 4.37556 4.45939 4.30755 4.357 
4.18595 4.14517 4.07418 3.90366 4.00946 3.13791 3.12401 3.1318 3.21666 
3.23926 3.24223 3.72591 3.00475 4.44268 3.3327 3.7548 3.70668 4.04292 
3.09908 3.1084 3.10298 3.12342 3.12574 2.7505 2.85501 3.47938 3.62279 
2.69933 3.06009 2.75796 2.78314 3.54726 2.79094 2.81516 2.80714 3.47966 
3.45204 2.83656 2.81396 2.74486 3.80151 4.05224 2.90728 2.85783 3.16953 
2.81514 2.71161 3.59094 3.59777 3.60668 4.11995 3.79931 4.65942 4.92968 
4.67749 4.29688 3.48241 2.75307 2.77229 2.97446 2.81282 2.92374 2.79652 
3.82618 4.23754 4.29058 2.90724 3.25479 3.45455 3.34533 3.27626 3.20601 
3.02997 3.83452 3.71782 3.13562 3.16504 4.81338 4.99792 2.77286 2.70128 
3.08255 3.10672 5.52618 5.31606 2.67915 3.323 3.28658 5.62584 5.64737 
3.4742 5.63741 5.63183 3.71691 3.7039 3.66442 3.08626 3.04363 4.92127 
2.89018 5.70248 5.80947 5.93079 5.32633 5.57127 5.60303 5.0206 5.52788 
5.34311 5.98809 4.42969 6 6 6 3.70013 4.00526 5.32506 
5.59856 3.09928 2.97068 3.42198 4.21657 4.55972 2.67827 2.733 2.7999 
4.07515 3.72458 3.18696 3.0058 3.09971 3.04079 2.9847 2.91871 2.73309 
3.44854 3.12955 3.26377 2.70499 2.68688 2.767 2.70577 2.78361 4.08366 
3.35876 3.44901 3.08972 2.92596 4.38204 4.28863 4.15943 3.74603 3.25867 
2.94369 3.55868 2.75843 2.82885 2.73147 2.77684 2.84355 2.84446 2.74848 
3.01712 2.68756 2.75489 3.81546 3.25926 4.00818 3.00505 2.95247 2.74244 
3.38583 3.31714 3.08652 3.08152 3.08636 3.04629 3.77269 3.78888 3.63522 
3.79401 3.78608 3.2965 3.50547 3.05485 3.69006 3.74216 4.51664 5.33626 
5.99991 5.75085 6 6 2.98514 3.01699 6 2.81623 2.93587 
2.79752 2.96824 2.82165 6 2.96116 3.01547 3.02147 6 5.89224 
3.3629 3.79324 3.78053 2.86147 3.08962 3.99716 2.7347 2.83171 2.83068 
2.80807 2.71795 4.32328 4.31646 2.6906 4.42832 4.37189 4.51569 4.52821 
3.0107 2.79637 4.06892 4.05807 3.22424 3.20112 3.11431 3.53044 3.6189 
2.89251 2.76585 3.01527 3.08423 2.94764 2.86215 3.08848 2.97509 2.94081 
2.94201 2.97948 2.76515 2.94442 2.96175 2.99214 3.03317 3.28925 3.11763 
2.92248 2.86305 2.85693 3.50936 3.51606 2.84398 2.70037 2.71495 3.53925 
3.52422 2.68709 2.82727 3.00684 3.37487 3.48562 3.51959 3.14714 2.99692 
3.45965 3.39892 3.26408 3.25656 3.43133 3.31598 3.29865 2.7987 3.50995 
3.32858 3.30891 3.27587 3.56946 3.57239 3.69064 3.37061 3.30541 3.67313 
2.81435 2.90378 3.83888 3.94264 2.85732 2.78807 2.98213 3.04436 3.01582 
4.02659 4.08694 4.1082 3.15989 3.87439 3.93344 3.97243 2.8967 2.78176 
2.94275 2.91351 2.84212 2.9689 2.73624 2.686 4.62986 3.01315 2.94819 
2.71732 2.74324 2.85371 2.98535 2.92731 4.27961 4.39518 4.51066 2.88026 
2.80404 2.74227 5.84747 3.13072 3.23348 6 6 6 6 
6 2.84394 2.79986 2.88794 2.77799 4.59916 2.78899 4.01177 3.9634 
3.67363 4.23188 4.92421 4.66161 3.73047 2.70242 2.68514 3.17542 3.67339 
3.7006 2.83907 3.16645 2.92788 2.94177 2.76366 2.71568 4.4953 4.85959 
3.94819 2.83405 2.81492 2.69384 4.60712 4.43281 4.17635 4.30555 4.41938 
3.91086 3.06914 3.203 3.07557 4.00489 4.09573 3.45394 3.32472 3.17149 
3.29282 3.84693 3.86562 5.58553 5.47472 2.74123 5.44927 5.03051 5.37613 
3.2218 3.26104 3.77797 3.76626 3.82128 3.0342 2.79042 4.78071 3.72658 
3.38045 3.43444 3.59001 3.18731 3.32275 3.16313 3.00931 2.81079 3.40771 
3.1392 3.28768 3.23992 3.03671 3.31633 4.95053 6 3.34587 3.38888 
3.13187 4.74662 4.96563 3.19708 4.78074 2.79633 3.11458 3.5044 3.63936 
3.35808 3.06091 4.06062 4.12635 3.81027 3.88901 4.13613 4.21348 4.26877 
4.08752 3.6547 3.87387 3.36708 3.44948 3.35975 3.34896 3.04869 3.17798 
2.78179 2.82681 4.1577 4.09515 4.17364 4.10297 4.0363 4.02839 4.02806 
3.99976 4.01432 4.02388 2.87588 2.91273 2.97177 2.81255 2.6969 4.00461 
3.90856 3.9332 3.92497 3.76364 3.78255 3.95697 3.26006 3.22035 3.18369 
3.28085 2.99317 2.94626 3.17059 3.14261 2.94381 2.95536 5.25014 5.83705 
5.42868 4.85657 2.72958 5.35437 5.42905 4.75878 4.69022 2.98241 2.83015 
3.14731 4.27591 4.14691 3.81389 3.81028 2.75189 2.8476 3.05443 2.99809 
4.18995 4.1744 4.29123 3.97311 3.10213 3.07631 3.08926 2.83076 3.54535 
4.19981 4.29634 2.98752 2.96805 3.03312 3.11676 3.02733 3.24054 5.83853 
5.7911 5.64742 5.69884 5.01517 4.02333 4.09226 3.19828 3.24725 3.00185 
2.87724 2.97795 2.71153 5.92346 4.6359 3.27394 3.44054 3.39384 3.19505 
3.39546 3.60187 3.41964 3.12578 3.25581 2.85561 3.04266 2.89445 2.7475 
3.23286 3.06519 2.98308 2.78383 3.03249 2.8879 2.70666 2.74864 3.7723 
2.73367 2.81225 2.82981 2.86603 2.84936 2.68955 2.76084 2.71205 2.6836 
2.80209 2.7839 2.84463 2.81764 2.83926 2.77687 4.83503 2.78982 2.77292 
2.7716 2.78287 2.78282 2.8431 2.90506 2.91717 2.96797 2.96703 2.92822 
2.88542 2.9077 3.37123 4.66853 2.75926 2.76509 3.41844 2.82634 2.81236 
2.80541 2.77593 3.43103 3.4471 3.0115 3.44684 4.03026 2.7995 2.85892 
2.8684 2.84405 3.56927 3.4791 3.04097 3.18887 3.22799 2.70997 2.7366 
2.71292 2.75907 2.71119 3.65231 3.73281 2.97855 2.93508 2.7339 2.77736 
3.17434 3.2202 2.80165 2.76256 2.83913 2.77177 4.07007 3.81521 3.96813 
3.0136 3.02611 2.96783 2.81714 3.44652 3.37938 2.69175 4.40408 4.14909 
3.22426 2.83508 3.0324 3.03776 3.12911 3.48215 3.4825 3.47636 4.5016 
3.04205 3.13228 2.73754 6 6 2.67954 3.51519 3.35016 3.10951 
6 6 3.21225 2.68549 2.93128 6 3.4276 3.05403 2.91696 
3.31837 2.86458 2.77651 3.56333 4.67442 4.38203 4.1158 2.75251 2.68341 
2.91991 3.18303 3.32389 3.31249 3.26013 2.81149 2.73277 2.90795 4.44984 
4.47739 3.37454 2.76986 3.42055 2.80446 2.70354 4.31097 4.35011 2.91207 
3.03141 2.69085 2.8113 2.88923 3.7044 3.90644 3.69131 3.12745 3.0415 
2.88114 3.88105 2.78893 2.72032 3.54729 3.22523 3.3316 3.34338 2.82459 
3.88076 3.68052 3.23357 2.87655 3.34651 3.3845 3.32788 2.73272 3.24505 
3.28403 3.28599 5.18982 3.58784 3.15573 3.18497 3.06251 3.11906 3.11892 
3.08613 2.69873 3.27013 3.20841 3.31859 4.99649 4.85355 4.87512 4.53527 
4.79463 3.36116 4.37465 3.36309 3.44685 3.53925 3.54065 3.65385 3.70152 
3.00631 2.78109 3.4175 3.20983 2.95869 3.2505 3.07011 3.67448 
FIELD FieldData 11
hevec1 3 1844 float
0.587864 0.549529 -0.593662 -0.017061 -0.637834 -0.769985 0.0494727 -0.57662 -0.815513 
-0.0517398 -0.639926 -0.766692 -0.0918027 -0.62288 -0.776912 -0.332147 0.93816 -0.097647 
-0.260316 0.96418 -0.0509261 -0.507252 0.861326 0.0285052 -0.185743 0.9812 -0.0524073 
-0.399801 0.729658 0.55476 -0.50008 0.815219 0.292128 -0.961756 0.226374 0.15421 
-0.511224 -0.196307 -0.836728 -0.890988 0.40338 0.208387 -0.277643 -0.237452 -0.930877 
-0.566179 -0.367287 -0.737931 -0.997539 -0.0654091 -0.0252407 0.343263 -0.194345 -0.918913 
0.329672 -0.142871 -0.933222 0.416201 -0.282811 -0.864173 0.480552 -0.2954 -0.825717 
0.372728 -0.239379 -0.896533 -0.691465 -0.44221 0.57125 0.613965 -0.286334 -0.735567 
-0.71003 0.307748 0.633363 -0.769528 -0.187541 0.610455 -0.719862 -0.261221 0.643088 
-0.804612 0.292532 0.516745 -0.691621 -0.545666 -0.47319 -0.970032 -0.172282 -0.171338 
-0.962164 -0.181136 -0.203544 -0.958408 -0.259587 0.118615 -0.923253 0.0987191 0.371293 
-0.907196 0.0463158 0.418151 -0.843859 -0.087683 0.529352 -0.847587 -0.198957 -0.491948 
0.664532 -0.238237 -0.708265 0.627137 -0.268681 -0.731102 -0.435937 -0.622496 -0.649967 
0.656731 -0.231537 -0.717701 -0.97889 -0.157194 -0.130633 -0.986166 -0.142371 -0.0848997 
-0.994876 -0.101013 -0.00417957 -0.991551 -0.122916 -0.0414464 -0.954485 0.0675961 0.290497 
-0.92114 0.124503 0.368781 -0.938442 0.105633 0.328891 -0.929424 0.117844 0.349692 
-0.787853 0.447099 -0.423545 -0.723019 0.472157 -0.504293 0.571228 -0.46131 -0.67889 
0.627769 -0.366158 -0.686902 0.645896 -0.313231 -0.696207 -0.81997 0.149074 -0.552654 
-0.996812 -0.0773883 0.0194084 -0.998259 -0.052528 0.0268166 -0.863504 0.233378 -0.447096 
-0.866392 0.247832 -0.433526 -0.688488 -0.142612 -0.711088 0.437334 0.643679 -0.628025 
-0.979688 -0.11201 0.166326 -0.97298 -0.206025 0.104229 -0.975611 -0.0260171 0.217961 
-0.725853 0.452998 -0.517619 -0.769585 0.440335 -0.462432 0.556518 0.637984 -0.532225 
0.532174 0.662494 -0.527156 0.527066 0.653903 -0.542782 0.544448 0.60643 -0.579499 
0.506496 -0.524139 -0.684646 0.457215 -0.562017 -0.689269 0.384872 -0.602553 -0.699145 
-0.320102 -0.21394 -0.922911 -0.308656 -0.108867 -0.944923 -0.268779 0.0972805 -0.958277 
-0.287671 0.00431189 -0.95772 -0.296683 0.20552 -0.932599 -0.736612 0.190314 -0.648986 
-0.721499 0.315027 -0.616601 -0.722744 0.255886 -0.642 -0.874505 -0.23436 0.424637 
0.255911 0.561619 -0.786825 0.247324 0.611439 -0.751647 0.3444 0.723447 -0.598342 
0.400201 0.642182 -0.65379 0.437018 0.741835 -0.508622 -0.6641 -0.220396 -0.71442 
-0.693017 -0.189033 -0.695696 -0.678092 -0.208057 -0.704914 -0.773249 0.472263 -0.423146 
0.0340901 0.927697 -0.371773 0.378195 -0.328615 -0.865437 0.464766 -0.466066 -0.752845 
0.370156 -0.457011 -0.80878 0.306398 -0.62825 -0.715138 -0.2521 0.700379 0.667768 
-0.309676 -0.570573 -0.760623 -0.287479 -0.640458 -0.712158 -0.319118 -0.504676 -0.802163 
-0.328275 -0.327145 -0.886122 -0.335069 -0.408977 -0.848803 -0.728905 0.434139 -0.529359 
-0.730274 0.452989 -0.511372 0.636442 0.371961 -0.675712 0.619116 0.372198 -0.691494 
0.622937 0.363709 -0.692579 0.598163 0.664454 -0.447998 0.0913849 -0.592643 -0.800264 
0.162179 -0.586111 -0.793833 0.24107 -0.590426 -0.770248 -0.638418 -0.246164 -0.729263 
-0.708552 -0.515921 -0.481435 0.500313 0.0492365 -0.864444 0.628509 0.0563399 -0.775759 
0.586122 0.0446482 -0.808991 -0.853749 0.34324 -0.391533 0.0834883 -0.0195288 -0.996317 
0.113383 0.0193807 -0.993362 0.287696 -0.38721 -0.875956 0.31734 -0.350473 -0.881172 
0.269491 -0.411187 -0.870804 0.35883 -0.312477 -0.879545 0.337347 -0.329929 -0.881671 
-0.0147083 0.970727 0.239736 -0.0847289 0.928321 0.361995 -0.195632 0.871258 0.450153 
-0.341016 0.794408 0.502617 0.354095 0.713804 0.604235 0.309303 0.720877 0.620216 
0.29498 0.678374 0.672901 -0.697083 0.579224 -0.422581 -0.663366 0.63859 -0.390062 
0.464007 -0.0901332 -0.881234 0.457532 0.545017 -0.702582 0.536357 0.480143 -0.694106 
0.585538 0.415966 -0.695786 0.577605 -0.464325 -0.671397 0.545499 -0.453315 -0.704937 
-0.831282 -0.361042 -0.422634 0.213498 -0.0876598 -0.973003 0.257689 -0.000721417 -0.966228 
0.253315 -0.0126165 -0.967302 0.233727 -0.0502516 -0.971003 0.238411 -0.00226041 -0.971162 
0.216392 0.0115783 -0.976238 0.252945 -0.000723687 -0.96748 0.167056 0.0576407 -0.984261 
0.193369 0.0284167 -0.980715 -0.855252 0.424687 -0.296958 -0.858804 0.387247 -0.335404 
0.134796 0.044699 -0.989865 0.148561 0.0625518 -0.986923 0.299627 0.120366 -0.946433 
0.157682 0.067124 -0.985206 0.231435 -0.467356 -0.853239 0.228846 -0.461448 -0.857144 
0.236132 -0.463825 -0.853878 0.244514 -0.448034 -0.859929 0.247867 -0.437393 -0.864436 
0.0495796 0.998522 0.022261 0.36751 0.703393 0.60842 -0.539236 -0.533054 -0.651981 
-0.590078 -0.47792 -0.650692 -0.385591 -0.486173 -0.784191 -0.42673 -0.542557 -0.723556 
-0.471559 -0.54512 -0.693164 -0.538856 0.771608 -0.338016 -0.616121 0.697273 -0.366341 
0.342208 0.61496 -0.710435 0.265241 0.663052 -0.700007 0.195469 0.710052 -0.676474 
0.514735 -0.482399 -0.708759 0.532248 -0.462337 -0.709194 0.575397 -0.442569 -0.687787 
0.540978 -0.465603 -0.700397 -0.477458 0.435783 -0.762973 -0.890213 -0.281153 -0.358433 
-0.918751 -0.262517 -0.294925 -0.860694 0.436206 -0.262547 -0.871954 0.434674 -0.225289 
0.180683 0.102326 -0.978204 0.221171 0.901168 0.372799 0.203202 -0.508511 -0.836735 
0.171265 -0.532843 -0.828702 -0.479362 0.81787 -0.318278 -0.407518 0.857373 -0.314389 